<?xml version="1.0" encoding="UTF-8"?>

<!-- generated on 2021-10-29 11:45:32 by Eclipse SUMO GUI Version 1.10.0
<configuration xmlns:xsi="http://www.w3.org/2001/XMLSchema-instance" xsi:noNamespaceSchemaLocation="http://sumo.dlr.de/xsd/sumoConfiguration.xsd">

    <input>
        <net-file value="data/cross.net.xml"/>
        <route-files value="data/vehicles.rou.xml,data/cyclists.rou.xml,data/pedestrians.rou.xml"/>
        <additional-files value="data/radars.add.xml,data/program_for_control.tll.xml"/>
    </input>

    <traci_server>
        <remote-port value="50941"/>
    </traci_server>

</configuration>
-->

<detector xmlns:xsi="http://www.w3.org/2001/XMLSchema-instance" xsi:noNamespaceSchemaLocation="http://sumo.dlr.de/xsd/det_e2_file.xsd">
   <interval begin="0.00" end="60.00" id="e2det_EC_2" sampledSeconds="0.00" nVehEntered="0" nVehLeft="0" nVehSeen="0" meanSpeed="-1.00" meanTimeLoss="-1.00" meanOccupancy="0.00" maxOccupancy="0.00" meanMaxJamLengthInVehicles="0.00" meanMaxJamLengthInMeters="0.00" maxJamLengthInVehicles="0" maxJamLengthInMeters="0.00" jamLengthInVehiclesSum="0" jamLengthInMetersSum="0.00" meanHaltingDuration="0.00" maxHaltingDuration="0.00" haltingDurationSum="0.00" meanIntervalHaltingDuration="0.00" maxIntervalHaltingDuration="0.00" intervalHaltingDurationSum="0.00" startedHalts="0.00" meanVehicleNumber="0.00" maxVehicleNumber="0" />
   <interval begin="0.00" end="60.00" id="e2det_EC_3" sampledSeconds="11.60" nVehEntered="1" nVehLeft="1" nVehSeen="1" meanSpeed="4.94" meanTimeLoss="7.20" meanOccupancy="1.71" maxOccupancy="9.56" meanMaxJamLengthInVehicles="0.05" meanMaxJamLengthInMeters="0.25" maxJamLengthInVehicles="1" maxJamLengthInMeters="5.00" jamLengthInVehiclesSum="3" jamLengthInMetersSum="15.00" meanHaltingDuration="4.00" maxHaltingDuration="4.00" haltingDurationSum="4.00" meanIntervalHaltingDuration="4.00" maxIntervalHaltingDuration="4.00" intervalHaltingDurationSum="4.00" startedHalts="1.00" meanVehicleNumber="0.22" maxVehicleNumber="1" />
   <interval begin="0.00" end="60.00" id="e2det_EC_4" sampledSeconds="0.00" nVehEntered="0" nVehLeft="0" nVehSeen="0" meanSpeed="-1.00" meanTimeLoss="-1.00" meanOccupancy="0.00" maxOccupancy="0.00" meanMaxJamLengthInVehicles="0.00" meanMaxJamLengthInMeters="0.00" maxJamLengthInVehicles="0" maxJamLengthInMeters="0.00" jamLengthInVehiclesSum="0" jamLengthInMetersSum="0.00" meanHaltingDuration="0.00" maxHaltingDuration="0.00" haltingDurationSum="0.00" meanIntervalHaltingDuration="0.00" maxIntervalHaltingDuration="0.00" intervalHaltingDurationSum="0.00" startedHalts="0.00" meanVehicleNumber="0.00" maxVehicleNumber="0" />
   <interval begin="0.00" end="60.00" id="e2det_NC_2" sampledSeconds="13.67" nVehEntered="1" nVehLeft="0" nVehSeen="1" meanSpeed="3.54" meanTimeLoss="10.34" meanOccupancy="2.37" maxOccupancy="10.14" meanMaxJamLengthInVehicles="0.13" meanMaxJamLengthInMeters="0.67" maxJamLengthInVehicles="1" maxJamLengthInMeters="5.00" jamLengthInVehiclesSum="8" jamLengthInMetersSum="40.00" meanHaltingDuration="9.00" maxHaltingDuration="9.00" haltingDurationSum="9.00" meanIntervalHaltingDuration="9.00" maxIntervalHaltingDuration="9.00" intervalHaltingDurationSum="9.00" startedHalts="1.00" meanVehicleNumber="0.23" maxVehicleNumber="1" />
   <interval begin="0.00" end="60.00" id="e2det_NC_3" sampledSeconds="19.22" nVehEntered="1" nVehLeft="0" nVehSeen="1" meanSpeed="2.52" meanTimeLoss="16.03" meanOccupancy="3.32" maxOccupancy="10.14" meanMaxJamLengthInVehicles="0.22" meanMaxJamLengthInMeters="1.08" maxJamLengthInVehicles="1" maxJamLengthInMeters="5.00" jamLengthInVehiclesSum="13" jamLengthInMetersSum="65.00" meanHaltingDuration="14.00" maxHaltingDuration="14.00" haltingDurationSum="14.00" meanIntervalHaltingDuration="14.00" maxIntervalHaltingDuration="14.00" intervalHaltingDurationSum="14.00" startedHalts="1.00" meanVehicleNumber="0.33" maxVehicleNumber="1" />
   <interval begin="0.00" end="60.00" id="e2det_NC_4" sampledSeconds="5.01" nVehEntered="1" nVehLeft="1" nVehSeen="1" meanSpeed="10.85" meanTimeLoss="0.18" meanOccupancy="0.81" maxOccupancy="10.14" meanMaxJamLengthInVehicles="0.00" meanMaxJamLengthInMeters="0.00" maxJamLengthInVehicles="0" maxJamLengthInMeters="0.00" jamLengthInVehiclesSum="0" jamLengthInMetersSum="0.00" meanHaltingDuration="0.00" maxHaltingDuration="0.00" haltingDurationSum="0.00" meanIntervalHaltingDuration="0.00" maxIntervalHaltingDuration="0.00" intervalHaltingDurationSum="0.00" startedHalts="0.00" meanVehicleNumber="0.10" maxVehicleNumber="1" />
   <interval begin="0.00" end="60.00" id="e2det_SC_2" sampledSeconds="0.00" nVehEntered="0" nVehLeft="0" nVehSeen="0" meanSpeed="-1.00" meanTimeLoss="-1.00" meanOccupancy="0.00" maxOccupancy="0.00" meanMaxJamLengthInVehicles="0.00" meanMaxJamLengthInMeters="0.00" maxJamLengthInVehicles="0" maxJamLengthInMeters="0.00" jamLengthInVehiclesSum="0" jamLengthInMetersSum="0.00" meanHaltingDuration="0.00" maxHaltingDuration="0.00" haltingDurationSum="0.00" meanIntervalHaltingDuration="0.00" maxIntervalHaltingDuration="0.00" intervalHaltingDurationSum="0.00" startedHalts="0.00" meanVehicleNumber="0.00" maxVehicleNumber="0" />
   <interval begin="0.00" end="60.00" id="e2det_SC_3" sampledSeconds="8.77" nVehEntered="1" nVehLeft="0" nVehSeen="1" meanSpeed="5.86" meanTimeLoss="5.04" meanOccupancy="1.43" maxOccupancy="9.56" meanMaxJamLengthInVehicles="0.05" meanMaxJamLengthInMeters="0.25" maxJamLengthInVehicles="1" maxJamLengthInMeters="5.00" jamLengthInVehiclesSum="3" jamLengthInMetersSum="15.00" meanHaltingDuration="4.00" maxHaltingDuration="4.00" haltingDurationSum="4.00" meanIntervalHaltingDuration="4.00" maxIntervalHaltingDuration="4.00" intervalHaltingDurationSum="4.00" startedHalts="1.00" meanVehicleNumber="0.15" maxVehicleNumber="1" />
   <interval begin="0.00" end="60.00" id="e2det_SC_4" sampledSeconds="4.37" nVehEntered="1" nVehLeft="1" nVehSeen="1" meanSpeed="13.12" meanTimeLoss="0.25" meanOccupancy="0.60" maxOccupancy="9.56" meanMaxJamLengthInVehicles="0.00" meanMaxJamLengthInMeters="0.00" maxJamLengthInVehicles="0" maxJamLengthInMeters="0.00" jamLengthInVehiclesSum="0" jamLengthInMetersSum="0.00" meanHaltingDuration="0.00" maxHaltingDuration="0.00" haltingDurationSum="0.00" meanIntervalHaltingDuration="0.00" maxIntervalHaltingDuration="0.00" intervalHaltingDurationSum="0.00" startedHalts="0.00" meanVehicleNumber="0.08" maxVehicleNumber="1" />
   <interval begin="0.00" end="60.00" id="e2det_WC_2" sampledSeconds="66.33" nVehEntered="5" nVehLeft="5" nVehSeen="5" meanSpeed="4.09" meanTimeLoss="9.00" meanOccupancy="10.65" maxOccupancy="40.57" meanMaxJamLengthInVehicles="0.43" meanMaxJamLengthInMeters="2.28" maxJamLengthInVehicles="2" maxJamLengthInMeters="14.02" jamLengthInVehiclesSum="26" jamLengthInMetersSum="136.53" meanHaltingDuration="7.50" maxHaltingDuration="21.00" haltingDurationSum="30.00" meanIntervalHaltingDuration="7.50" maxIntervalHaltingDuration="21.00" intervalHaltingDurationSum="30.00" startedHalts="4.00" meanVehicleNumber="1.20" maxVehicleNumber="4" />
   <interval begin="0.00" end="60.00" id="e2det_WC_3" sampledSeconds="3.77" nVehEntered="1" nVehLeft="1" nVehSeen="1" meanSpeed="14.39" meanTimeLoss="0.29" meanOccupancy="0.67" maxOccupancy="10.14" meanMaxJamLengthInVehicles="0.00" meanMaxJamLengthInMeters="0.00" maxJamLengthInVehicles="0" maxJamLengthInMeters="0.00" jamLengthInVehiclesSum="0" jamLengthInMetersSum="0.00" meanHaltingDuration="0.00" maxHaltingDuration="0.00" haltingDurationSum="0.00" meanIntervalHaltingDuration="0.00" maxIntervalHaltingDuration="0.00" intervalHaltingDurationSum="0.00" startedHalts="0.00" meanVehicleNumber="0.08" maxVehicleNumber="1" />
   <interval begin="0.00" end="60.00" id="e2det_WC_4" sampledSeconds="13.38" nVehEntered="1" nVehLeft="1" nVehSeen="1" meanSpeed="4.06" meanTimeLoss="9.61" meanOccupancy="2.13" maxOccupancy="10.14" meanMaxJamLengthInVehicles="0.10" meanMaxJamLengthInMeters="0.50" maxJamLengthInVehicles="1" maxJamLengthInMeters="5.00" jamLengthInVehiclesSum="6" jamLengthInMetersSum="30.00" meanHaltingDuration="7.00" maxHaltingDuration="7.00" haltingDurationSum="7.00" meanIntervalHaltingDuration="7.00" maxIntervalHaltingDuration="7.00" intervalHaltingDurationSum="7.00" startedHalts="1.00" meanVehicleNumber="0.25" maxVehicleNumber="1" />
   <interval begin="0.00" end="60.00" id="e2det_CN_2" sampledSeconds="4.42" nVehEntered="1" nVehLeft="1" nVehSeen="1" meanSpeed="12.29" meanTimeLoss="0.68" meanOccupancy="0.64" maxOccupancy="10.14" meanMaxJamLengthInVehicles="0.00" meanMaxJamLengthInMeters="0.00" maxJamLengthInVehicles="0" maxJamLengthInMeters="0.00" jamLengthInVehiclesSum="0" jamLengthInMetersSum="0.00" meanHaltingDuration="0.00" maxHaltingDuration="0.00" haltingDurationSum="0.00" meanIntervalHaltingDuration="0.00" maxIntervalHaltingDuration="0.00" intervalHaltingDurationSum="0.00" startedHalts="0.00" meanVehicleNumber="0.10" maxVehicleNumber="1" />
   <interval begin="0.00" end="60.00" id="e2det_CE_2" sampledSeconds="8.58" nVehEntered="2" nVehLeft="2" nVehSeen="2" meanSpeed="12.65" meanTimeLoss="0.20" meanOccupancy="1.46" maxOccupancy="10.14" meanMaxJamLengthInVehicles="0.00" meanMaxJamLengthInMeters="0.00" maxJamLengthInVehicles="0" maxJamLengthInMeters="0.00" jamLengthInVehiclesSum="0" jamLengthInMetersSum="0.00" meanHaltingDuration="0.00" maxHaltingDuration="0.00" haltingDurationSum="0.00" meanIntervalHaltingDuration="0.00" maxIntervalHaltingDuration="0.00" intervalHaltingDurationSum="0.00" startedHalts="0.00" meanVehicleNumber="0.18" maxVehicleNumber="1" />
   <interval begin="0.00" end="60.00" id="e2det_CS_2" sampledSeconds="19.24" nVehEntered="4" nVehLeft="4" nVehSeen="4" meanSpeed="11.29" meanTimeLoss="0.69" meanOccupancy="2.96" maxOccupancy="20.28" meanMaxJamLengthInVehicles="0.00" meanMaxJamLengthInMeters="0.00" maxJamLengthInVehicles="0" maxJamLengthInMeters="0.00" jamLengthInVehiclesSum="0" jamLengthInMetersSum="0.00" meanHaltingDuration="0.00" maxHaltingDuration="0.00" haltingDurationSum="0.00" meanIntervalHaltingDuration="0.00" maxIntervalHaltingDuration="0.00" intervalHaltingDurationSum="0.00" startedHalts="0.00" meanVehicleNumber="0.40" maxVehicleNumber="3" />
   <interval begin="0.00" end="60.00" id="e2det_CW_2" sampledSeconds="8.41" nVehEntered="2" nVehLeft="2" nVehSeen="2" meanSpeed="12.91" meanTimeLoss="0.23" meanOccupancy="1.18" maxOccupancy="10.14" meanMaxJamLengthInVehicles="0.00" meanMaxJamLengthInMeters="0.00" maxJamLengthInVehicles="0" maxJamLengthInMeters="0.00" jamLengthInVehiclesSum="0" jamLengthInMetersSum="0.00" meanHaltingDuration="0.00" maxHaltingDuration="0.00" haltingDurationSum="0.00" meanIntervalHaltingDuration="0.00" maxIntervalHaltingDuration="0.00" intervalHaltingDurationSum="0.00" startedHalts="0.00" meanVehicleNumber="0.18" maxVehicleNumber="1" />
   <interval begin="60.00" end="120.00" id="e2det_EC_2" sampledSeconds="21.89" nVehEntered="1" nVehLeft="0" nVehSeen="1" meanSpeed="2.35" meanTimeLoss="17.73" meanOccupancy="3.51" maxOccupancy="9.56" meanMaxJamLengthInVehicles="0.27" meanMaxJamLengthInMeters="1.33" maxJamLengthInVehicles="1" maxJamLengthInMeters="5.00" jamLengthInVehiclesSum="16" jamLengthInMetersSum="80.00" meanHaltingDuration="17.00" maxHaltingDuration="17.00" haltingDurationSum="17.00" meanIntervalHaltingDuration="17.00" maxIntervalHaltingDuration="17.00" intervalHaltingDurationSum="17.00" startedHalts="1.00" meanVehicleNumber="0.37" maxVehicleNumber="1" />
   <interval begin="60.00" end="120.00" id="e2det_EC_3" sampledSeconds="0.00" nVehEntered="0" nVehLeft="0" nVehSeen="0" meanSpeed="-1.00" meanTimeLoss="-1.00" meanOccupancy="0.00" maxOccupancy="0.00" meanMaxJamLengthInVehicles="0.00" meanMaxJamLengthInMeters="0.00" maxJamLengthInVehicles="0" maxJamLengthInMeters="0.00" jamLengthInVehiclesSum="0" jamLengthInMetersSum="0.00" meanHaltingDuration="0.00" maxHaltingDuration="0.00" haltingDurationSum="0.00" meanIntervalHaltingDuration="0.00" maxIntervalHaltingDuration="0.00" intervalHaltingDurationSum="0.00" startedHalts="0.00" meanVehicleNumber="0.00" maxVehicleNumber="0" />
   <interval begin="60.00" end="120.00" id="e2det_EC_4" sampledSeconds="0.00" nVehEntered="0" nVehLeft="0" nVehSeen="0" meanSpeed="-1.00" meanTimeLoss="-1.00" meanOccupancy="0.00" maxOccupancy="0.00" meanMaxJamLengthInVehicles="0.00" meanMaxJamLengthInMeters="0.00" maxJamLengthInVehicles="0" maxJamLengthInMeters="0.00" jamLengthInVehiclesSum="0" jamLengthInMetersSum="0.00" meanHaltingDuration="0.00" maxHaltingDuration="0.00" haltingDurationSum="0.00" meanIntervalHaltingDuration="0.00" maxIntervalHaltingDuration="0.00" intervalHaltingDurationSum="0.00" startedHalts="0.00" meanVehicleNumber="0.00" maxVehicleNumber="0" />
   <interval begin="60.00" end="120.00" id="e2det_NC_2" sampledSeconds="22.02" nVehEntered="0" nVehLeft="1" nVehSeen="1" meanSpeed="0.27" meanTimeLoss="21.46" meanOccupancy="3.51" maxOccupancy="10.14" meanMaxJamLengthInVehicles="0.33" meanMaxJamLengthInMeters="1.67" maxJamLengthInVehicles="1" maxJamLengthInMeters="5.00" jamLengthInVehiclesSum="20" jamLengthInMetersSum="100.00" meanHaltingDuration="29.00" maxHaltingDuration="29.00" haltingDurationSum="29.00" meanIntervalHaltingDuration="20.00" maxIntervalHaltingDuration="20.00" intervalHaltingDurationSum="20.00" startedHalts="0.00" meanVehicleNumber="0.38" maxVehicleNumber="1" />
   <interval begin="60.00" end="120.00" id="e2det_NC_3" sampledSeconds="45.73" nVehEntered="1" nVehLeft="2" nVehSeen="2" meanSpeed="1.32" meanTimeLoss="20.56" meanOccupancy="7.50" maxOccupancy="20.28" meanMaxJamLengthInVehicles="0.58" meanMaxJamLengthInMeters="3.50" maxJamLengthInVehicles="2" maxJamLengthInMeters="12.64" jamLengthInVehiclesSum="35" jamLengthInMetersSum="210.17" meanHaltingDuration="25.00" maxHaltingDuration="34.00" haltingDurationSum="50.00" meanIntervalHaltingDuration="18.00" maxIntervalHaltingDuration="20.00" intervalHaltingDurationSum="36.00" startedHalts="1.00" meanVehicleNumber="0.78" maxVehicleNumber="2" />
   <interval begin="60.00" end="120.00" id="e2det_NC_4" sampledSeconds="4.14" nVehEntered="1" nVehLeft="1" nVehSeen="1" meanSpeed="13.12" meanTimeLoss="0.23" meanOccupancy="0.67" maxOccupancy="10.14" meanMaxJamLengthInVehicles="0.00" meanMaxJamLengthInMeters="0.00" maxJamLengthInVehicles="0" maxJamLengthInMeters="0.00" jamLengthInVehiclesSum="0" jamLengthInMetersSum="0.00" meanHaltingDuration="0.00" maxHaltingDuration="0.00" haltingDurationSum="0.00" meanIntervalHaltingDuration="0.00" maxIntervalHaltingDuration="0.00" intervalHaltingDurationSum="0.00" startedHalts="0.00" meanVehicleNumber="0.08" maxVehicleNumber="1" />
   <interval begin="60.00" end="120.00" id="e2det_SC_2" sampledSeconds="9.75" nVehEntered="1" nVehLeft="1" nVehSeen="1" meanSpeed="5.88" meanTimeLoss="5.30" meanOccupancy="1.28" maxOccupancy="9.56" meanMaxJamLengthInVehicles="0.03" meanMaxJamLengthInMeters="0.11" maxJamLengthInVehicles="1" maxJamLengthInMeters="3.40" jamLengthInVehiclesSum="2" jamLengthInMetersSum="6.79" meanHaltingDuration="3.00" maxHaltingDuration="3.00" haltingDurationSum="3.00" meanIntervalHaltingDuration="3.00" maxIntervalHaltingDuration="3.00" intervalHaltingDurationSum="3.00" startedHalts="1.00" meanVehicleNumber="0.18" maxVehicleNumber="1" />
   <interval begin="60.00" end="120.00" id="e2det_SC_3" sampledSeconds="65.92" nVehEntered="2" nVehLeft="2" nVehSeen="3" meanSpeed="1.74" meanTimeLoss="19.24" meanOccupancy="9.72" maxOccupancy="19.12" meanMaxJamLengthInVehicles="0.83" meanMaxJamLengthInMeters="4.57" maxJamLengthInVehicles="2" maxJamLengthInMeters="13.40" jamLengthInVehiclesSum="50" jamLengthInMetersSum="274.38" meanHaltingDuration="18.67" maxHaltingDuration="36.00" haltingDurationSum="56.00" meanIntervalHaltingDuration="17.33" maxIntervalHaltingDuration="32.00" intervalHaltingDurationSum="52.00" startedHalts="2.00" meanVehicleNumber="1.13" maxVehicleNumber="2" />
   <interval begin="60.00" end="120.00" id="e2det_SC_4" sampledSeconds="6.19" nVehEntered="1" nVehLeft="1" nVehSeen="1" meanSpeed="9.25" meanTimeLoss="2.12" meanOccupancy="0.92" maxOccupancy="9.56" meanMaxJamLengthInVehicles="0.00" meanMaxJamLengthInMeters="0.00" maxJamLengthInVehicles="0" maxJamLengthInMeters="0.00" jamLengthInVehiclesSum="0" jamLengthInMetersSum="0.00" meanHaltingDuration="0.00" maxHaltingDuration="0.00" haltingDurationSum="0.00" meanIntervalHaltingDuration="0.00" maxIntervalHaltingDuration="0.00" intervalHaltingDurationSum="0.00" startedHalts="0.00" meanVehicleNumber="0.12" maxVehicleNumber="1" />
   <interval begin="60.00" end="120.00" id="e2det_WC_2" sampledSeconds="91.32" nVehEntered="2" nVehLeft="0" nVehSeen="2" meanSpeed="0.98" meanTimeLoss="42.23" meanOccupancy="15.55" maxOccupancy="20.28" meanMaxJamLengthInVehicles="1.32" meanMaxJamLengthInMeters="7.96" maxJamLengthInVehicles="2" maxJamLengthInMeters="12.51" jamLengthInVehiclesSum="79" jamLengthInMetersSum="477.55" meanHaltingDuration="40.50" maxHaltingDuration="47.00" haltingDurationSum="81.00" meanIntervalHaltingDuration="40.50" maxIntervalHaltingDuration="47.00" intervalHaltingDurationSum="81.00" startedHalts="2.00" meanVehicleNumber="1.53" maxVehicleNumber="2" />
   <interval begin="60.00" end="120.00" id="e2det_WC_3" sampledSeconds="86.86" nVehEntered="2" nVehLeft="0" nVehSeen="2" meanSpeed="1.03" meanTimeLoss="40.30" meanOccupancy="14.83" maxOccupancy="20.28" meanMaxJamLengthInVehicles="1.27" meanMaxJamLengthInMeters="7.88" maxJamLengthInVehicles="2" maxJamLengthInMeters="12.59" jamLengthInVehiclesSum="76" jamLengthInMetersSum="472.67" meanHaltingDuration="39.00" maxHaltingDuration="40.00" haltingDurationSum="78.00" meanIntervalHaltingDuration="39.00" maxIntervalHaltingDuration="40.00" intervalHaltingDurationSum="78.00" startedHalts="2.00" meanVehicleNumber="1.47" maxVehicleNumber="2" />
   <interval begin="60.00" end="120.00" id="e2det_WC_4" sampledSeconds="0.00" nVehEntered="0" nVehLeft="0" nVehSeen="0" meanSpeed="-1.00" meanTimeLoss="-1.00" meanOccupancy="0.00" maxOccupancy="0.00" meanMaxJamLengthInVehicles="0.00" meanMaxJamLengthInMeters="0.00" maxJamLengthInVehicles="0" maxJamLengthInMeters="0.00" jamLengthInVehiclesSum="0" jamLengthInMetersSum="0.00" meanHaltingDuration="0.00" maxHaltingDuration="0.00" haltingDurationSum="0.00" meanIntervalHaltingDuration="0.00" maxIntervalHaltingDuration="0.00" intervalHaltingDurationSum="0.00" startedHalts="0.00" meanVehicleNumber="0.00" maxVehicleNumber="0" />
   <interval begin="60.00" end="120.00" id="e2det_CN_2" sampledSeconds="8.59" nVehEntered="2" nVehLeft="2" nVehSeen="2" meanSpeed="12.64" meanTimeLoss="0.25" meanOccupancy="1.35" maxOccupancy="20.28" meanMaxJamLengthInVehicles="0.00" meanMaxJamLengthInMeters="0.00" maxJamLengthInVehicles="0" maxJamLengthInMeters="0.00" jamLengthInVehiclesSum="0" jamLengthInMetersSum="0.00" meanHaltingDuration="0.00" maxHaltingDuration="0.00" haltingDurationSum="0.00" meanIntervalHaltingDuration="0.00" maxIntervalHaltingDuration="0.00" intervalHaltingDurationSum="0.00" startedHalts="0.00" meanVehicleNumber="0.17" maxVehicleNumber="2" />
   <interval begin="60.00" end="120.00" id="e2det_CE_2" sampledSeconds="9.13" nVehEntered="2" nVehLeft="2" nVehSeen="2" meanSpeed="11.90" meanTimeLoss="0.62" meanOccupancy="1.35" maxOccupancy="10.29" meanMaxJamLengthInVehicles="0.00" meanMaxJamLengthInMeters="0.00" maxJamLengthInVehicles="0" maxJamLengthInMeters="0.00" jamLengthInVehiclesSum="0" jamLengthInMetersSum="0.00" meanHaltingDuration="0.00" maxHaltingDuration="0.00" haltingDurationSum="0.00" meanIntervalHaltingDuration="0.00" maxIntervalHaltingDuration="0.00" intervalHaltingDurationSum="0.00" startedHalts="0.00" meanVehicleNumber="0.18" maxVehicleNumber="2" />
   <interval begin="60.00" end="120.00" id="e2det_CS_2" sampledSeconds="13.46" nVehEntered="3" nVehLeft="3" nVehSeen="3" meanSpeed="12.10" meanTimeLoss="0.62" meanOccupancy="2.18" maxOccupancy="20.28" meanMaxJamLengthInVehicles="0.00" meanMaxJamLengthInMeters="0.00" maxJamLengthInVehicles="0" maxJamLengthInMeters="0.00" jamLengthInVehiclesSum="0" jamLengthInMetersSum="0.00" meanHaltingDuration="0.00" maxHaltingDuration="0.00" haltingDurationSum="0.00" meanIntervalHaltingDuration="0.00" maxIntervalHaltingDuration="0.00" intervalHaltingDurationSum="0.00" startedHalts="0.00" meanVehicleNumber="0.28" maxVehicleNumber="2" />
   <interval begin="60.00" end="120.00" id="e2det_CW_2" sampledSeconds="8.58" nVehEntered="2" nVehLeft="2" nVehSeen="2" meanSpeed="12.65" meanTimeLoss="0.52" meanOccupancy="1.28" maxOccupancy="10.14" meanMaxJamLengthInVehicles="0.00" meanMaxJamLengthInMeters="0.00" maxJamLengthInVehicles="0" maxJamLengthInMeters="0.00" jamLengthInVehiclesSum="0" jamLengthInMetersSum="0.00" meanHaltingDuration="0.00" maxHaltingDuration="0.00" haltingDurationSum="0.00" meanIntervalHaltingDuration="0.00" maxIntervalHaltingDuration="0.00" intervalHaltingDurationSum="0.00" startedHalts="0.00" meanVehicleNumber="0.17" maxVehicleNumber="1" />
   <interval begin="120.00" end="180.00" id="e2det_EC_2" sampledSeconds="20.19" nVehEntered="2" nVehLeft="3" nVehSeen="3" meanSpeed="5.97" meanTimeLoss="3.74" meanOccupancy="2.40" maxOccupancy="9.56" meanMaxJamLengthInVehicles="0.12" meanMaxJamLengthInMeters="0.40" maxJamLengthInVehicles="1" maxJamLengthInMeters="3.40" jamLengthInVehiclesSum="7" jamLengthInMetersSum="23.71" meanHaltingDuration="12.50" maxHaltingDuration="17.00" haltingDurationSum="25.00" meanIntervalHaltingDuration="4.00" maxIntervalHaltingDuration="8.00" intervalHaltingDurationSum="8.00" startedHalts="1.00" meanVehicleNumber="0.40" maxVehicleNumber="1" />
   <interval begin="120.00" end="180.00" id="e2det_EC_3" sampledSeconds="20.00" nVehEntered="1" nVehLeft="0" nVehSeen="1" meanSpeed="2.57" meanTimeLoss="16.28" meanOccupancy="3.19" maxOccupancy="9.56" meanMaxJamLengthInVehicles="0.23" meanMaxJamLengthInMeters="1.17" maxJamLengthInVehicles="1" maxJamLengthInMeters="5.00" jamLengthInVehiclesSum="14" jamLengthInMetersSum="70.00" meanHaltingDuration="15.00" maxHaltingDuration="15.00" haltingDurationSum="15.00" meanIntervalHaltingDuration="15.00" maxIntervalHaltingDuration="15.00" intervalHaltingDurationSum="15.00" startedHalts="1.00" meanVehicleNumber="0.33" maxVehicleNumber="1" />
   <interval begin="120.00" end="180.00" id="e2det_EC_4" sampledSeconds="0.77" nVehEntered="1" nVehLeft="0" nVehSeen="1" meanSpeed="13.50" meanTimeLoss="0.04" meanOccupancy="0.16" maxOccupancy="9.56" meanMaxJamLengthInVehicles="0.00" meanMaxJamLengthInMeters="0.00" maxJamLengthInVehicles="0" maxJamLengthInMeters="0.00" jamLengthInVehiclesSum="0" jamLengthInMetersSum="0.00" meanHaltingDuration="0.00" maxHaltingDuration="0.00" haltingDurationSum="0.00" meanIntervalHaltingDuration="0.00" maxIntervalHaltingDuration="0.00" intervalHaltingDurationSum="0.00" startedHalts="0.00" meanVehicleNumber="0.02" maxVehicleNumber="1" />
   <interval begin="120.00" end="180.00" id="e2det_NC_2" sampledSeconds="0.00" nVehEntered="0" nVehLeft="0" nVehSeen="0" meanSpeed="-1.00" meanTimeLoss="-1.00" meanOccupancy="0.00" maxOccupancy="0.00" meanMaxJamLengthInVehicles="0.00" meanMaxJamLengthInMeters="0.00" maxJamLengthInVehicles="0" maxJamLengthInMeters="0.00" jamLengthInVehiclesSum="0" jamLengthInMetersSum="0.00" meanHaltingDuration="0.00" maxHaltingDuration="0.00" haltingDurationSum="0.00" meanIntervalHaltingDuration="0.00" maxIntervalHaltingDuration="0.00" intervalHaltingDurationSum="0.00" startedHalts="0.00" meanVehicleNumber="0.00" maxVehicleNumber="0" />
   <interval begin="120.00" end="180.00" id="e2det_NC_3" sampledSeconds="14.99" nVehEntered="2" nVehLeft="2" nVehSeen="2" meanSpeed="7.25" meanTimeLoss="3.88" meanOccupancy="2.31" maxOccupancy="20.28" meanMaxJamLengthInVehicles="0.00" meanMaxJamLengthInMeters="0.00" maxJamLengthInVehicles="0" maxJamLengthInMeters="0.00" jamLengthInVehiclesSum="0" jamLengthInMetersSum="0.00" meanHaltingDuration="1.00" maxHaltingDuration="1.00" haltingDurationSum="1.00" meanIntervalHaltingDuration="1.00" maxIntervalHaltingDuration="1.00" intervalHaltingDurationSum="1.00" startedHalts="1.00" meanVehicleNumber="0.28" maxVehicleNumber="2" />
   <interval begin="120.00" end="180.00" id="e2det_NC_4" sampledSeconds="3.74" nVehEntered="1" nVehLeft="1" nVehSeen="1" meanSpeed="14.53" meanTimeLoss="0.39" meanOccupancy="0.63" maxOccupancy="10.14" meanMaxJamLengthInVehicles="0.00" meanMaxJamLengthInMeters="0.00" maxJamLengthInVehicles="0" maxJamLengthInMeters="0.00" jamLengthInVehiclesSum="0" jamLengthInMetersSum="0.00" meanHaltingDuration="0.00" maxHaltingDuration="0.00" haltingDurationSum="0.00" meanIntervalHaltingDuration="0.00" maxIntervalHaltingDuration="0.00" intervalHaltingDurationSum="0.00" startedHalts="0.00" meanVehicleNumber="0.08" maxVehicleNumber="1" />
   <interval begin="120.00" end="180.00" id="e2det_SC_2" sampledSeconds="61.01" nVehEntered="2" nVehLeft="2" nVehSeen="2" meanSpeed="1.88" meanTimeLoss="26.23" meanOccupancy="9.21" maxOccupancy="19.12" meanMaxJamLengthInVehicles="0.72" meanMaxJamLengthInMeters="3.91" maxJamLengthInVehicles="2" maxJamLengthInMeters="12.52" jamLengthInVehiclesSum="43" jamLengthInMetersSum="234.76" meanHaltingDuration="15.33" maxHaltingDuration="28.00" haltingDurationSum="46.00" meanIntervalHaltingDuration="15.33" maxIntervalHaltingDuration="28.00" intervalHaltingDurationSum="46.00" startedHalts="3.00" meanVehicleNumber="1.03" maxVehicleNumber="2" />
   <interval begin="120.00" end="180.00" id="e2det_SC_3" sampledSeconds="64.84" nVehEntered="1" nVehLeft="2" nVehSeen="2" meanSpeed="0.97" meanTimeLoss="30.01" meanOccupancy="10.06" maxOccupancy="19.12" meanMaxJamLengthInVehicles="0.92" meanMaxJamLengthInMeters="5.13" maxJamLengthInVehicles="2" maxJamLengthInMeters="12.68" jamLengthInVehiclesSum="55" jamLengthInMetersSum="307.76" meanHaltingDuration="29.50" maxHaltingDuration="43.00" haltingDurationSum="59.00" meanIntervalHaltingDuration="28.00" maxIntervalHaltingDuration="40.00" intervalHaltingDurationSum="56.00" startedHalts="1.00" meanVehicleNumber="1.12" maxVehicleNumber="2" />
   <interval begin="120.00" end="180.00" id="e2det_SC_4" sampledSeconds="85.41" nVehEntered="5" nVehLeft="4" nVehSeen="5" meanSpeed="3.19" meanTimeLoss="12.89" meanOccupancy="13.09" maxOccupancy="19.12" meanMaxJamLengthInVehicles="0.88" meanMaxJamLengthInMeters="5.42" maxJamLengthInVehicles="2" maxJamLengthInMeters="12.50" jamLengthInVehiclesSum="53" jamLengthInMetersSum="325.03" meanHaltingDuration="27.50" maxHaltingDuration="29.00" haltingDurationSum="55.00" meanIntervalHaltingDuration="27.50" maxIntervalHaltingDuration="29.00" intervalHaltingDurationSum="55.00" startedHalts="2.00" meanVehicleNumber="1.50" maxVehicleNumber="3" />
   <interval begin="120.00" end="180.00" id="e2det_WC_2" sampledSeconds="34.46" nVehEntered="2" nVehLeft="3" nVehSeen="4" meanSpeed="3.54" meanTimeLoss="6.40" meanOccupancy="5.01" maxOccupancy="19.36" meanMaxJamLengthInVehicles="0.30" meanMaxJamLengthInMeters="1.43" maxJamLengthInVehicles="2" maxJamLengthInMeters="13.40" jamLengthInVehiclesSum="18" jamLengthInMetersSum="85.69" meanHaltingDuration="25.25" maxHaltingDuration="48.00" haltingDurationSum="101.00" meanIntervalHaltingDuration="5.00" maxIntervalHaltingDuration="9.00" intervalHaltingDurationSum="20.00" startedHalts="2.00" meanVehicleNumber="0.62" maxVehicleNumber="2" />
   <interval begin="120.00" end="180.00" id="e2det_WC_3" sampledSeconds="17.55" nVehEntered="1" nVehLeft="2" nVehSeen="3" meanSpeed="3.86" meanTimeLoss="4.23" meanOccupancy="2.67" maxOccupancy="17.83" meanMaxJamLengthInVehicles="0.12" meanMaxJamLengthInMeters="0.58" maxJamLengthInVehicles="1" maxJamLengthInMeters="5.00" jamLengthInVehiclesSum="7" jamLengthInMetersSum="35.00" meanHaltingDuration="28.67" maxHaltingDuration="40.00" haltingDurationSum="86.00" meanIntervalHaltingDuration="2.67" maxIntervalHaltingDuration="6.00" intervalHaltingDurationSum="8.00" startedHalts="1.00" meanVehicleNumber="0.32" maxVehicleNumber="2" />
   <interval begin="120.00" end="180.00" id="e2det_WC_4" sampledSeconds="0.00" nVehEntered="0" nVehLeft="0" nVehSeen="0" meanSpeed="-1.00" meanTimeLoss="-1.00" meanOccupancy="0.00" maxOccupancy="0.00" meanMaxJamLengthInVehicles="0.00" meanMaxJamLengthInMeters="0.00" maxJamLengthInVehicles="0" maxJamLengthInMeters="0.00" jamLengthInVehiclesSum="0" jamLengthInMetersSum="0.00" meanHaltingDuration="0.00" maxHaltingDuration="0.00" haltingDurationSum="0.00" meanIntervalHaltingDuration="0.00" maxIntervalHaltingDuration="0.00" intervalHaltingDurationSum="0.00" startedHalts="0.00" meanVehicleNumber="0.00" maxVehicleNumber="0" />
   <interval begin="120.00" end="180.00" id="e2det_CN_2" sampledSeconds="22.31" nVehEntered="5" nVehLeft="5" nVehSeen="5" meanSpeed="12.17" meanTimeLoss="0.53" meanOccupancy="3.39" maxOccupancy="20.28" meanMaxJamLengthInVehicles="0.00" meanMaxJamLengthInMeters="0.00" maxJamLengthInVehicles="0" maxJamLengthInMeters="0.00" jamLengthInVehiclesSum="0" jamLengthInMetersSum="0.00" meanHaltingDuration="0.00" maxHaltingDuration="0.00" haltingDurationSum="0.00" meanIntervalHaltingDuration="0.00" maxIntervalHaltingDuration="0.00" intervalHaltingDurationSum="0.00" startedHalts="0.00" meanVehicleNumber="0.47" maxVehicleNumber="2" />
   <interval begin="120.00" end="180.00" id="e2det_CE_2" sampledSeconds="10.56" nVehEntered="2" nVehLeft="2" nVehSeen="2" meanSpeed="10.28" meanTimeLoss="1.51" meanOccupancy="1.50" maxOccupancy="20.28" meanMaxJamLengthInVehicles="0.00" meanMaxJamLengthInMeters="0.00" maxJamLengthInVehicles="0" maxJamLengthInMeters="0.00" jamLengthInVehiclesSum="0" jamLengthInMetersSum="0.00" meanHaltingDuration="0.00" maxHaltingDuration="0.00" haltingDurationSum="0.00" meanIntervalHaltingDuration="0.00" maxIntervalHaltingDuration="0.00" intervalHaltingDurationSum="0.00" startedHalts="0.00" meanVehicleNumber="0.22" maxVehicleNumber="2" />