<?xml version="1.0" encoding="UTF-8"?>

<!-- generated on 2021-10-29 14:10:26 by Eclipse SUMO GUI Version 1.10.0
<configuration xmlns:xsi="http://www.w3.org/2001/XMLSchema-instance" xsi:noNamespaceSchemaLocation="http://sumo.dlr.de/xsd/sumoConfiguration.xsd">

    <input>
        <net-file value="data/cross.net.xml"/>
        <route-files value="data/vehicles.rou.xml,data/cyclists.rou.xml,data/pedestrians.rou.xml"/>
        <additional-files value="data/radars.add.xml,data/program_for_control.tll.xml"/>
    </input>

    <traci_server>
        <remote-port value="32957"/>
    </traci_server>

</configuration>
-->

<detector xmlns:xsi="http://www.w3.org/2001/XMLSchema-instance" xsi:noNamespaceSchemaLocation="http://sumo.dlr.de/xsd/det_e2_file.xsd">
   <interval begin="0.00" end="60.00" id="e2det_EC_2" sampledSeconds="0.00" nVehEntered="0" nVehLeft="0" nVehSeen="0" meanSpeed="-1.00" meanTimeLoss="-1.00" meanOccupancy="0.00" maxOccupancy="0.00" meanMaxJamLengthInVehicles="0.00" meanMaxJamLengthInMeters="0.00" maxJamLengthInVehicles="0" maxJamLengthInMeters="0.00" jamLengthInVehiclesSum="0" jamLengthInMetersSum="0.00" meanHaltingDuration="0.00" maxHaltingDuration="0.00" haltingDurationSum="0.00" meanIntervalHaltingDuration="0.00" maxIntervalHaltingDuration="0.00" intervalHaltingDurationSum="0.00" startedHalts="0.00" meanVehicleNumber="0.00" maxVehicleNumber="0" />
   <interval begin="0.00" end="60.00" id="e2det_EC_3" sampledSeconds="4.56" nVehEntered="1" nVehLeft="1" nVehSeen="1" meanSpeed="12.56" meanTimeLoss="0.16" meanOccupancy="0.64" maxOccupancy="9.56" meanMaxJamLengthInVehicles="0.00" meanMaxJamLengthInMeters="0.00" maxJamLengthInVehicles="0" maxJamLengthInMeters="0.00" jamLengthInVehiclesSum="0" jamLengthInMetersSum="0.00" meanHaltingDuration="0.00" maxHaltingDuration="0.00" haltingDurationSum="0.00" meanIntervalHaltingDuration="0.00" maxIntervalHaltingDuration="0.00" intervalHaltingDurationSum="0.00" startedHalts="0.00" meanVehicleNumber="0.08" maxVehicleNumber="1" />
   <interval begin="0.00" end="60.00" id="e2det_EC_4" sampledSeconds="0.00" nVehEntered="0" nVehLeft="0" nVehSeen="0" meanSpeed="-1.00" meanTimeLoss="-1.00" meanOccupancy="0.00" maxOccupancy="0.00" meanMaxJamLengthInVehicles="0.00" meanMaxJamLengthInMeters="0.00" maxJamLengthInVehicles="0" maxJamLengthInMeters="0.00" jamLengthInVehiclesSum="0" jamLengthInMetersSum="0.00" meanHaltingDuration="0.00" maxHaltingDuration="0.00" haltingDurationSum="0.00" meanIntervalHaltingDuration="0.00" maxIntervalHaltingDuration="0.00" intervalHaltingDurationSum="0.00" startedHalts="0.00" meanVehicleNumber="0.00" maxVehicleNumber="0" />
   <interval begin="0.00" end="60.00" id="e2det_NC_2" sampledSeconds="4.72" nVehEntered="1" nVehLeft="1" nVehSeen="1" meanSpeed="11.50" meanTimeLoss="0.64" meanOccupancy="0.65" maxOccupancy="10.14" meanMaxJamLengthInVehicles="0.00" meanMaxJamLengthInMeters="0.00" maxJamLengthInVehicles="0" maxJamLengthInMeters="0.00" jamLengthInVehiclesSum="0" jamLengthInMetersSum="0.00" meanHaltingDuration="0.00" maxHaltingDuration="0.00" haltingDurationSum="0.00" meanIntervalHaltingDuration="0.00" maxIntervalHaltingDuration="0.00" intervalHaltingDurationSum="0.00" startedHalts="0.00" meanVehicleNumber="0.08" maxVehicleNumber="1" />
   <interval begin="0.00" end="60.00" id="e2det_NC_3" sampledSeconds="3.76" nVehEntered="1" nVehLeft="1" nVehSeen="1" meanSpeed="14.44" meanTimeLoss="0.18" meanOccupancy="0.68" maxOccupancy="10.14" meanMaxJamLengthInVehicles="0.00" meanMaxJamLengthInMeters="0.00" maxJamLengthInVehicles="0" maxJamLengthInMeters="0.00" jamLengthInVehiclesSum="0" jamLengthInMetersSum="0.00" meanHaltingDuration="0.00" maxHaltingDuration="0.00" haltingDurationSum="0.00" meanIntervalHaltingDuration="0.00" maxIntervalHaltingDuration="0.00" intervalHaltingDurationSum="0.00" startedHalts="0.00" meanVehicleNumber="0.08" maxVehicleNumber="1" />
   <interval begin="0.00" end="60.00" id="e2det_NC_4" sampledSeconds="11.63" nVehEntered="1" nVehLeft="1" nVehSeen="1" meanSpeed="4.67" meanTimeLoss="6.87" meanOccupancy="1.83" maxOccupancy="10.14" meanMaxJamLengthInVehicles="0.05" meanMaxJamLengthInMeters="0.25" maxJamLengthInVehicles="1" maxJamLengthInMeters="5.00" jamLengthInVehiclesSum="3" jamLengthInMetersSum="15.00" meanHaltingDuration="4.00" maxHaltingDuration="4.00" haltingDurationSum="4.00" meanIntervalHaltingDuration="4.00" maxIntervalHaltingDuration="4.00" intervalHaltingDurationSum="4.00" startedHalts="1.00" meanVehicleNumber="0.22" maxVehicleNumber="1" />
   <interval begin="0.00" end="60.00" id="e2det_SC_2" sampledSeconds="0.00" nVehEntered="0" nVehLeft="0" nVehSeen="0" meanSpeed="-1.00" meanTimeLoss="-1.00" meanOccupancy="0.00" maxOccupancy="0.00" meanMaxJamLengthInVehicles="0.00" meanMaxJamLengthInMeters="0.00" maxJamLengthInVehicles="0" maxJamLengthInMeters="0.00" jamLengthInVehiclesSum="0" jamLengthInMetersSum="0.00" meanHaltingDuration="0.00" maxHaltingDuration="0.00" haltingDurationSum="0.00" meanIntervalHaltingDuration="0.00" maxIntervalHaltingDuration="0.00" intervalHaltingDurationSum="0.00" startedHalts="0.00" meanVehicleNumber="0.00" maxVehicleNumber="0" />
   <interval begin="0.00" end="60.00" id="e2det_SC_3" sampledSeconds="8.77" nVehEntered="1" nVehLeft="0" nVehSeen="1" meanSpeed="5.86" meanTimeLoss="5.04" meanOccupancy="1.43" maxOccupancy="9.56" meanMaxJamLengthInVehicles="0.05" meanMaxJamLengthInMeters="0.25" maxJamLengthInVehicles="1" maxJamLengthInMeters="5.00" jamLengthInVehiclesSum="3" jamLengthInMetersSum="15.00" meanHaltingDuration="4.00" maxHaltingDuration="4.00" haltingDurationSum="4.00" meanIntervalHaltingDuration="4.00" maxIntervalHaltingDuration="4.00" intervalHaltingDurationSum="4.00" startedHalts="1.00" meanVehicleNumber="0.15" maxVehicleNumber="1" />
   <interval begin="0.00" end="60.00" id="e2det_SC_4" sampledSeconds="22.15" nVehEntered="1" nVehLeft="1" nVehSeen="1" meanSpeed="2.59" meanTimeLoss="18.10" meanOccupancy="3.28" maxOccupancy="9.56" meanMaxJamLengthInVehicles="0.22" meanMaxJamLengthInMeters="1.08" maxJamLengthInVehicles="1" maxJamLengthInMeters="5.00" jamLengthInVehiclesSum="13" jamLengthInMetersSum="65.00" meanHaltingDuration="7.50" maxHaltingDuration="14.00" haltingDurationSum="15.00" meanIntervalHaltingDuration="7.50" maxIntervalHaltingDuration="14.00" intervalHaltingDurationSum="15.00" startedHalts="2.00" meanVehicleNumber="0.38" maxVehicleNumber="1" />
   <interval begin="0.00" end="60.00" id="e2det_WC_2" sampledSeconds="78.90" nVehEntered="4" nVehLeft="3" nVehSeen="4" meanSpeed="2.63" meanTimeLoss="15.65" meanOccupancy="12.85" maxOccupancy="30.43" meanMaxJamLengthInVehicles="0.72" meanMaxJamLengthInMeters="4.42" maxJamLengthInVehicles="3" maxJamLengthInMeters="20.04" jamLengthInVehiclesSum="44" jamLengthInMetersSum="268.61" meanHaltingDuration="8.33" maxHaltingDuration="15.00" haltingDurationSum="50.00" meanIntervalHaltingDuration="8.33" maxIntervalHaltingDuration="15.00" intervalHaltingDurationSum="50.00" startedHalts="6.00" meanVehicleNumber="1.37" maxVehicleNumber="3" />
   <interval begin="0.00" end="60.00" id="e2det_WC_3" sampledSeconds="10.86" nVehEntered="1" nVehLeft="1" nVehSeen="1" meanSpeed="5.00" meanTimeLoss="7.37" meanOccupancy="1.46" maxOccupancy="10.14" meanMaxJamLengthInVehicles="0.05" meanMaxJamLengthInMeters="0.17" maxJamLengthInVehicles="1" maxJamLengthInMeters="3.40" jamLengthInVehiclesSum="3" jamLengthInMetersSum="10.20" meanHaltingDuration="4.00" maxHaltingDuration="4.00" haltingDurationSum="4.00" meanIntervalHaltingDuration="4.00" maxIntervalHaltingDuration="4.00" intervalHaltingDurationSum="4.00" startedHalts="1.00" meanVehicleNumber="0.20" maxVehicleNumber="1" />
   <interval begin="0.00" end="60.00" id="e2det_WC_4" sampledSeconds="3.96" nVehEntered="1" nVehLeft="1" nVehSeen="1" meanSpeed="13.72" meanTimeLoss="0.16" meanOccupancy="0.60" maxOccupancy="10.14" meanMaxJamLengthInVehicles="0.00" meanMaxJamLengthInMeters="0.00" maxJamLengthInVehicles="0" maxJamLengthInMeters="0.00" jamLengthInVehiclesSum="0" jamLengthInMetersSum="0.00" meanHaltingDuration="0.00" maxHaltingDuration="0.00" haltingDurationSum="0.00" meanIntervalHaltingDuration="0.00" maxIntervalHaltingDuration="0.00" intervalHaltingDurationSum="0.00" startedHalts="0.00" meanVehicleNumber="0.08" maxVehicleNumber="1" />
   <interval begin="0.00" end="60.00" id="e2det_CN_2" sampledSeconds="4.43" nVehEntered="1" nVehLeft="1" nVehSeen="1" meanSpeed="12.27" meanTimeLoss="0.69" meanOccupancy="0.65" maxOccupancy="10.14" meanMaxJamLengthInVehicles="0.00" meanMaxJamLengthInMeters="0.00" maxJamLengthInVehicles="0" maxJamLengthInMeters="0.00" jamLengthInVehiclesSum="0" jamLengthInMetersSum="0.00" meanHaltingDuration="0.00" maxHaltingDuration="0.00" haltingDurationSum="0.00" meanIntervalHaltingDuration="0.00" maxIntervalHaltingDuration="0.00" intervalHaltingDurationSum="0.00" startedHalts="0.00" meanVehicleNumber="0.08" maxVehicleNumber="1" />
   <interval begin="0.00" end="60.00" id="e2det_CE_2" sampledSeconds="5.00" nVehEntered="1" nVehLeft="1" nVehSeen="1" meanSpeed="10.87" meanTimeLoss="0.29" meanOccupancy="0.73" maxOccupancy="10.14" meanMaxJamLengthInVehicles="0.00" meanMaxJamLengthInMeters="0.00" maxJamLengthInVehicles="0" maxJamLengthInMeters="0.00" jamLengthInVehiclesSum="0" jamLengthInMetersSum="0.00" meanHaltingDuration="0.00" maxHaltingDuration="0.00" haltingDurationSum="0.00" meanIntervalHaltingDuration="0.00" maxIntervalHaltingDuration="0.00" intervalHaltingDurationSum="0.00" startedHalts="0.00" meanVehicleNumber="0.10" maxVehicleNumber="1" />
   <interval begin="0.00" end="60.00" id="e2det_CS_2" sampledSeconds="9.00" nVehEntered="3" nVehLeft="2" nVehSeen="3" meanSpeed="12.80" meanTimeLoss="0.40" meanOccupancy="1.46" maxOccupancy="10.14" meanMaxJamLengthInVehicles="0.00" meanMaxJamLengthInMeters="0.00" maxJamLengthInVehicles="0" maxJamLengthInMeters="0.00" jamLengthInVehiclesSum="0" jamLengthInMetersSum="0.00" meanHaltingDuration="0.00" maxHaltingDuration="0.00" haltingDurationSum="0.00" meanIntervalHaltingDuration="0.00" maxIntervalHaltingDuration="0.00" intervalHaltingDurationSum="0.00" startedHalts="0.00" meanVehicleNumber="0.18" maxVehicleNumber="1" />
   <interval begin="0.00" end="60.00" id="e2det_CW_2" sampledSeconds="4.39" nVehEntered="1" nVehLeft="1" nVehSeen="1" meanSpeed="12.37" meanTimeLoss="0.22" meanOccupancy="0.67" maxOccupancy="10.14" meanMaxJamLengthInVehicles="0.00" meanMaxJamLengthInMeters="0.00" maxJamLengthInVehicles="0" maxJamLengthInMeters="0.00" jamLengthInVehiclesSum="0" jamLengthInMetersSum="0.00" meanHaltingDuration="0.00" maxHaltingDuration="0.00" haltingDurationSum="0.00" meanIntervalHaltingDuration="0.00" maxIntervalHaltingDuration="0.00" intervalHaltingDurationSum="0.00" startedHalts="0.00" meanVehicleNumber="0.10" maxVehicleNumber="1" />
   <interval begin="60.00" end="120.00" id="e2det_EC_2" sampledSeconds="11.65" nVehEntered="1" nVehLeft="1" nVehSeen="1" meanSpeed="4.92" meanTimeLoss="6.83" meanOccupancy="1.70" maxOccupancy="9.56" meanMaxJamLengthInVehicles="0.07" meanMaxJamLengthInMeters="0.33" maxJamLengthInVehicles="1" maxJamLengthInMeters="5.00" jamLengthInVehiclesSum="4" jamLengthInMetersSum="20.00" meanHaltingDuration="5.00" maxHaltingDuration="5.00" haltingDurationSum="5.00" meanIntervalHaltingDuration="5.00" maxIntervalHaltingDuration="5.00" intervalHaltingDurationSum="5.00" startedHalts="1.00" meanVehicleNumber="0.20" maxVehicleNumber="1" />
   <interval begin="60.00" end="120.00" id="e2det_EC_3" sampledSeconds="0.00" nVehEntered="0" nVehLeft="0" nVehSeen="0" meanSpeed="-1.00" meanTimeLoss="-1.00" meanOccupancy="0.00" maxOccupancy="0.00" meanMaxJamLengthInVehicles="0.00" meanMaxJamLengthInMeters="0.00" maxJamLengthInVehicles="0" maxJamLengthInMeters="0.00" jamLengthInVehiclesSum="0" jamLengthInMetersSum="0.00" meanHaltingDuration="0.00" maxHaltingDuration="0.00" haltingDurationSum="0.00" meanIntervalHaltingDuration="0.00" maxIntervalHaltingDuration="0.00" intervalHaltingDurationSum="0.00" startedHalts="0.00" meanVehicleNumber="0.00" maxVehicleNumber="0" />
   <interval begin="60.00" end="120.00" id="e2det_EC_4" sampledSeconds="0.00" nVehEntered="0" nVehLeft="0" nVehSeen="0" meanSpeed="-1.00" meanTimeLoss="-1.00" meanOccupancy="0.00" maxOccupancy="0.00" meanMaxJamLengthInVehicles="0.00" meanMaxJamLengthInMeters="0.00" maxJamLengthInVehicles="0" maxJamLengthInMeters="0.00" jamLengthInVehiclesSum="0" jamLengthInMetersSum="0.00" meanHaltingDuration="0.00" maxHaltingDuration="0.00" haltingDurationSum="0.00" meanIntervalHaltingDuration="0.00" maxIntervalHaltingDuration="0.00" intervalHaltingDurationSum="0.00" startedHalts="0.00" meanVehicleNumber="0.00" maxVehicleNumber="0" />
   <interval begin="60.00" end="120.00" id="e2det_NC_2" sampledSeconds="0.00" nVehEntered="0" nVehLeft="0" nVehSeen="0" meanSpeed="-1.00" meanTimeLoss="-1.00" meanOccupancy="0.00" maxOccupancy="0.00" meanMaxJamLengthInVehicles="0.00" meanMaxJamLengthInMeters="0.00" maxJamLengthInVehicles="0" maxJamLengthInMeters="0.00" jamLengthInVehiclesSum="0" jamLengthInMetersSum="0.00" meanHaltingDuration="0.00" maxHaltingDuration="0.00" haltingDurationSum="0.00" meanIntervalHaltingDuration="0.00" maxIntervalHaltingDuration="0.00" intervalHaltingDurationSum="0.00" startedHalts="0.00" meanVehicleNumber="0.00" maxVehicleNumber="0" />
   <interval begin="60.00" end="120.00" id="e2det_NC_3" sampledSeconds="13.59" nVehEntered="1" nVehLeft="1" nVehSeen="1" meanSpeed="4.00" meanTimeLoss="9.37" meanOccupancy="2.15" maxOccupancy="10.14" meanMaxJamLengthInVehicles="0.10" meanMaxJamLengthInMeters="0.50" maxJamLengthInVehicles="1" maxJamLengthInMeters="5.00" jamLengthInVehiclesSum="6" jamLengthInMetersSum="30.00" meanHaltingDuration="7.00" maxHaltingDuration="7.00" haltingDurationSum="7.00" meanIntervalHaltingDuration="7.00" maxIntervalHaltingDuration="7.00" intervalHaltingDurationSum="7.00" startedHalts="1.00" meanVehicleNumber="0.23" maxVehicleNumber="1" />
   <interval begin="60.00" end="120.00" id="e2det_NC_4" sampledSeconds="6.87" nVehEntered="1" nVehLeft="1" nVehSeen="1" meanSpeed="7.90" meanTimeLoss="2.95" meanOccupancy="1.04" maxOccupancy="10.14" meanMaxJamLengthInVehicles="0.00" meanMaxJamLengthInMeters="0.00" maxJamLengthInVehicles="0" maxJamLengthInMeters="0.00" jamLengthInVehiclesSum="0" jamLengthInMetersSum="0.00" meanHaltingDuration="0.00" maxHaltingDuration="0.00" haltingDurationSum="0.00" meanIntervalHaltingDuration="0.00" maxIntervalHaltingDuration="0.00" intervalHaltingDurationSum="0.00" startedHalts="0.00" meanVehicleNumber="0.13" maxVehicleNumber="1" />
   <interval begin="60.00" end="120.00" id="e2det_SC_2" sampledSeconds="11.64" nVehEntered="1" nVehLeft="1" nVehSeen="1" meanSpeed="4.92" meanTimeLoss="7.24" meanOccupancy="1.76" maxOccupancy="9.56" meanMaxJamLengthInVehicles="0.05" meanMaxJamLengthInMeters="0.25" maxJamLengthInVehicles="1" maxJamLengthInMeters="5.00" jamLengthInVehiclesSum="3" jamLengthInMetersSum="15.00" meanHaltingDuration="4.00" maxHaltingDuration="4.00" haltingDurationSum="4.00" meanIntervalHaltingDuration="4.00" maxIntervalHaltingDuration="4.00" intervalHaltingDurationSum="4.00" startedHalts="1.00" meanVehicleNumber="0.22" maxVehicleNumber="1" />
   <interval begin="60.00" end="120.00" id="e2det_SC_3" sampledSeconds="30.94" nVehEntered="2" nVehLeft="3" nVehSeen="3" meanSpeed="3.89" meanTimeLoss="7.45" meanOccupancy="4.56" maxOccupancy="9.56" meanMaxJamLengthInVehicles="0.27" meanMaxJamLengthInMeters="1.33" maxJamLengthInVehicles="1" maxJamLengthInMeters="5.00" jamLengthInVehiclesSum="16" jamLengthInMetersSum="80.00" meanHaltingDuration="10.50" maxHaltingDuration="11.00" haltingDurationSum="21.00" meanIntervalHaltingDuration="8.50" maxIntervalHaltingDuration="11.00" intervalHaltingDurationSum="17.00" startedHalts="1.00" meanVehicleNumber="0.57" maxVehicleNumber="1" />
   <interval begin="60.00" end="120.00" id="e2det_SC_4" sampledSeconds="16.43" nVehEntered="1" nVehLeft="0" nVehSeen="1" meanSpeed="3.13" meanTimeLoss="12.83" meanOccupancy="2.71" maxOccupancy="9.56" meanMaxJamLengthInVehicles="0.17" meanMaxJamLengthInMeters="0.83" maxJamLengthInVehicles="1" maxJamLengthInMeters="5.00" jamLengthInVehiclesSum="10" jamLengthInMetersSum="50.00" meanHaltingDuration="11.00" maxHaltingDuration="11.00" haltingDurationSum="11.00" meanIntervalHaltingDuration="11.00" maxIntervalHaltingDuration="11.00" intervalHaltingDurationSum="11.00" startedHalts="1.00" meanVehicleNumber="0.28" maxVehicleNumber="1" />
   <interval begin="60.00" end="120.00" id="e2det_WC_2" sampledSeconds="38.39" nVehEntered="3" nVehLeft="4" nVehSeen="4" meanSpeed="4.50" meanTimeLoss="6.23" meanOccupancy="5.84" maxOccupancy="12.27" meanMaxJamLengthInVehicles="0.22" meanMaxJamLengthInMeters="1.08" maxJamLengthInVehicles="1" maxJamLengthInMeters="5.00" jamLengthInVehiclesSum="13" jamLengthInMetersSum="65.00" meanHaltingDuration="7.50" maxHaltingDuration="8.00" haltingDurationSum="15.00" meanIntervalHaltingDuration="7.50" maxIntervalHaltingDuration="8.00" intervalHaltingDurationSum="15.00" startedHalts="2.00" meanVehicleNumber="0.72" maxVehicleNumber="2" />
   <interval begin="60.00" end="120.00" id="e2det_WC_3" sampledSeconds="11.75" nVehEntered="2" nVehLeft="2" nVehSeen="2" meanSpeed="9.24" meanTimeLoss="2.10" meanOccupancy="1.67" maxOccupancy="20.28" meanMaxJamLengthInVehicles="0.00" meanMaxJamLengthInMeters="0.00" maxJamLengthInVehicles="0" maxJamLengthInMeters="0.00" jamLengthInVehiclesSum="0" jamLengthInMetersSum="0.00" meanHaltingDuration="0.00" maxHaltingDuration="0.00" haltingDurationSum="0.00" meanIntervalHaltingDuration="0.00" maxIntervalHaltingDuration="0.00" intervalHaltingDurationSum="0.00" startedHalts="1.00" meanVehicleNumber="0.25" maxVehicleNumber="2" />
   <interval begin="60.00" end="120.00" id="e2det_WC_4" sampledSeconds="0.00" nVehEntered="0" nVehLeft="0" nVehSeen="0" meanSpeed="-1.00" meanTimeLoss="-1.00" meanOccupancy="0.00" maxOccupancy="0.00" meanMaxJamLengthInVehicles="0.00" meanMaxJamLengthInMeters="0.00" maxJamLengthInVehicles="0" maxJamLengthInMeters="0.00" jamLengthInVehiclesSum="0" jamLengthInMetersSum="0.00" meanHaltingDuration="0.00" maxHaltingDuration="0.00" haltingDurationSum="0.00" meanIntervalHaltingDuration="0.00" maxIntervalHaltingDuration="0.00" intervalHaltingDurationSum="0.00" startedHalts="0.00" meanVehicleNumber="0.00" maxVehicleNumber="0" />
   <interval begin="60.00" end="120.00" id="e2det_CN_2" sampledSeconds="17.22" nVehEntered="4" nVehLeft="4" nVehSeen="4" meanSpeed="12.61" meanTimeLoss="0.29" meanOccupancy="2.64" maxOccupancy="10.14" meanMaxJamLengthInVehicles="0.00" meanMaxJamLengthInMeters="0.00" maxJamLengthInVehicles="0" maxJamLengthInMeters="0.00" jamLengthInVehiclesSum="0" jamLengthInMetersSum="0.00" meanHaltingDuration="0.00" maxHaltingDuration="0.00" haltingDurationSum="0.00" meanIntervalHaltingDuration="0.00" maxIntervalHaltingDuration="0.00" intervalHaltingDurationSum="0.00" startedHalts="0.00" meanVehicleNumber="0.35" maxVehicleNumber="1" />
   <interval begin="60.00" end="120.00" id="e2det_CE_2" sampledSeconds="21.82" nVehEntered="5" nVehLeft="5" nVehSeen="5" meanSpeed="12.44" meanTimeLoss="0.58" meanOccupancy="3.36" maxOccupancy="20.28" meanMaxJamLengthInVehicles="0.00" meanMaxJamLengthInMeters="0.00" maxJamLengthInVehicles="0" maxJamLengthInMeters="0.00" jamLengthInVehiclesSum="0" jamLengthInMetersSum="0.00" meanHaltingDuration="0.00" maxHaltingDuration="0.00" haltingDurationSum="0.00" meanIntervalHaltingDuration="0.00" maxIntervalHaltingDuration="0.00" intervalHaltingDurationSum="0.00" startedHalts="0.00" meanVehicleNumber="0.47" maxVehicleNumber="2" />
   <interval begin="60.00" end="120.00" id="e2det_CS_2" sampledSeconds="31.22" nVehEntered="6" nVehLeft="6" nVehSeen="7" meanSpeed="10.74" meanTimeLoss="0.76" meanOccupancy="4.70" maxOccupancy="21.78" meanMaxJamLengthInVehicles="0.00" meanMaxJamLengthInMeters="0.00" maxJamLengthInVehicles="0" maxJamLengthInMeters="0.00" jamLengthInVehiclesSum="0" jamLengthInMetersSum="0.00" meanHaltingDuration="0.00" maxHaltingDuration="0.00" haltingDurationSum="0.00" meanIntervalHaltingDuration="0.00" maxIntervalHaltingDuration="0.00" intervalHaltingDurationSum="0.00" startedHalts="0.00" meanVehicleNumber="0.62" maxVehicleNumber="3" />
   <interval begin="60.00" end="120.00" id="e2det_CW_2" sampledSeconds="10.86" nVehEntered="2" nVehLeft="2" nVehSeen="2" meanSpeed="10.00" meanTimeLoss="1.67" meanOccupancy="1.60" maxOccupancy="20.28" meanMaxJamLengthInVehicles="0.00" meanMaxJamLengthInMeters="0.00" maxJamLengthInVehicles="0" maxJamLengthInMeters="0.00" jamLengthInVehiclesSum="0" jamLengthInMetersSum="0.00" meanHaltingDuration="0.00" maxHaltingDuration="0.00" haltingDurationSum="0.00" meanIntervalHaltingDuration="0.00" maxIntervalHaltingDuration="0.00" intervalHaltingDurationSum="0.00" startedHalts="0.00" meanVehicleNumber="0.22" maxVehicleNumber="2" />
   <interval begin="120.00" end="180.00" id="e2det_EC_2" sampledSeconds="55.27" nVehEntered="2" nVehLeft="2" nVehSeen="2" meanSpeed="2.07" meanTimeLoss="23.52" meanOccupancy="7.91" maxOccupancy="18.08" meanMaxJamLengthInVehicles="0.57" meanMaxJamLengthInMeters="2.76" maxJamLengthInVehicles="2" maxJamLengthInMeters="10.89" jamLengthInVehiclesSum="34" jamLengthInMetersSum="165.49" meanHaltingDuration="7.80" maxHaltingDuration="16.00" haltingDurationSum="39.00" meanIntervalHaltingDuration="7.80" maxIntervalHaltingDuration="16.00" intervalHaltingDurationSum="39.00" startedHalts="5.00" meanVehicleNumber="0.97" maxVehicleNumber="2" />
   <interval begin="120.00" end="180.00" id="e2det_EC_3" sampledSeconds="19.42" nVehEntered="1" nVehLeft="1" nVehSeen="1" meanSpeed="2.95" meanTimeLoss="15.27" meanOccupancy="2.78" maxOccupancy="9.56" meanMaxJamLengthInVehicles="0.20" meanMaxJamLengthInMeters="0.91" maxJamLengthInVehicles="1" maxJamLengthInMeters="5.00" jamLengthInVehiclesSum="12" jamLengthInMetersSum="54.54" meanHaltingDuration="13.00" maxHaltingDuration="13.00" haltingDurationSum="13.00" meanIntervalHaltingDuration="13.00" maxIntervalHaltingDuration="13.00" intervalHaltingDurationSum="13.00" startedHalts="1.00" meanVehicleNumber="0.35" maxVehicleNumber="1" />
   <interval begin="120.00" end="180.00" id="e2det_EC_4" sampledSeconds="1.29" nVehEntered="1" nVehLeft="0" nVehSeen="1" meanSpeed="13.97" meanTimeLoss="0.03" meanOccupancy="0.29" maxOccupancy="9.56" meanMaxJamLengthInVehicles="0.00" meanMaxJamLengthInMeters="0.00" maxJamLengthInVehicles="0" maxJamLengthInMeters="0.00" jamLengthInVehiclesSum="0" jamLengthInMetersSum="0.00" meanHaltingDuration="0.00" maxHaltingDuration="0.00" haltingDurationSum="0.00" meanIntervalHaltingDuration="0.00" maxIntervalHaltingDuration="0.00" intervalHaltingDurationSum="0.00" startedHalts="0.00" meanVehicleNumber="0.03" maxVehicleNumber="1" />
   <interval begin="120.00" end="180.00" id="e2det_NC_2" sampledSeconds="0.00" nVehEntered="0" nVehLeft="0" nVehSeen="0" meanSpeed="-1.00" meanTimeLoss="-1.00" meanOccupancy="0.00" maxOccupancy="0.00" meanMaxJamLengthInVehicles="0.00" meanMaxJamLengthInMeters="0.00" maxJamLengthInVehicles="0" maxJamLengthInMeters="0.00" jamLengthInVehiclesSum="0" jamLengthInMetersSum="0.00" meanHaltingDuration="0.00" maxHaltingDuration="0.00" haltingDurationSum="0.00" meanIntervalHaltingDuration="0.00" maxIntervalHaltingDuration="0.00" intervalHaltingDurationSum="0.00" startedHalts="0.00" meanVehicleNumber="0.00" maxVehicleNumber="0" />
   <interval begin="120.00" end="180.00" id="e2det_NC_3" sampledSeconds="37.03" nVehEntered="2" nVehLeft="1" nVehSeen="2" meanSpeed="2.77" meanTimeLoss="15.08" meanOccupancy="5.75" maxOccupancy="18.23" meanMaxJamLengthInVehicles="0.37" meanMaxJamLengthInMeters="1.82" maxJamLengthInVehicles="2" maxJamLengthInMeters="10.97" jamLengthInVehiclesSum="22" jamLengthInMetersSum="108.97" meanHaltingDuration="8.33" maxHaltingDuration="10.00" haltingDurationSum="25.00" meanIntervalHaltingDuration="8.33" maxIntervalHaltingDuration="10.00" intervalHaltingDurationSum="25.00" startedHalts="3.00" meanVehicleNumber="0.65" maxVehicleNumber="2" />
   <interval begin="120.00" end="180.00" id="e2det_NC_4" sampledSeconds="7.91" nVehEntered="1" nVehLeft="0" nVehSeen="1" meanSpeed="6.12" meanTimeLoss="4.96" meanOccupancy="1.35" maxOccupancy="10.14" meanMaxJamLengthInVehicles="0.03" meanMaxJamLengthInMeters="0.17" maxJamLengthInVehicles="1" maxJamLengthInMeters="5.00" jamLengthInVehiclesSum="2" jamLengthInMetersSum="10.00" meanHaltingDuration="3.00" maxHaltingDuration="3.00" haltingDurationSum="3.00" meanIntervalHaltingDuration="3.00" maxIntervalHaltingDuration="3.00" intervalHaltingDurationSum="3.00" startedHalts="1.00" meanVehicleNumber="0.13" maxVehicleNumber="1" />
   <interval begin="120.00" end="180.00" id="e2det_SC_2" sampledSeconds="21.06" nVehEntered="2" nVehLeft="2" nVehSeen="2" meanSpeed="5.44" meanTimeLoss="6.26" meanOccupancy="3.14" maxOccupancy="9.56" meanMaxJamLengthInVehicles="0.12" meanMaxJamLengthInMeters="0.58" maxJamLengthInVehicles="1" maxJamLengthInMeters="5.00" jamLengthInVehiclesSum="7" jamLengthInMetersSum="35.00" meanHaltingDuration="8.00" maxHaltingDuration="8.00" haltingDurationSum="8.00" meanIntervalHaltingDuration="8.00" maxIntervalHaltingDuration="8.00" intervalHaltingDurationSum="8.00" startedHalts="1.00" meanVehicleNumber="0.37" maxVehicleNumber="1" />
   <interval begin="120.00" end="180.00" id="e2det_SC_3" sampledSeconds="24.70" nVehEntered="2" nVehLeft="1" nVehSeen="2" meanSpeed="4.40" meanTimeLoss="8.08" meanOccupancy="3.80" maxOccupancy="9.56" meanMaxJamLengthInVehicles="0.17" meanMaxJamLengthInMeters="0.83" maxJamLengthInVehicles="1" maxJamLengthInMeters="5.00" jamLengthInVehiclesSum="10" jamLengthInMetersSum="50.00" meanHaltingDuration="6.00" maxHaltingDuration="11.00" haltingDurationSum="12.00" meanIntervalHaltingDuration="6.00" maxIntervalHaltingDuration="11.00" intervalHaltingDurationSum="12.00" startedHalts="2.00" meanVehicleNumber="0.45" maxVehicleNumber="1" />
   <interval begin="120.00" end="180.00" id="e2det_SC_4" sampledSeconds="63.10" nVehEntered="5" nVehLeft="4" nVehSeen="6" meanSpeed="3.79" meanTimeLoss="7.38" meanOccupancy="8.75" maxOccupancy="19.12" meanMaxJamLengthInVehicles="0.52" meanMaxJamLengthInMeters="2.27" maxJamLengthInVehicles="2" maxJamLengthInMeters="8.45" jamLengthInVehiclesSum="31" jamLengthInMetersSum="136.13" meanHaltingDuration="9.20" maxHaltingDuration="17.00" haltingDurationSum="46.00" meanIntervalHaltingDuration="7.00" maxIntervalHaltingDuration="17.00" intervalHaltingDurationSum="35.00" startedHalts="4.00" meanVehicleNumber="1.13" maxVehicleNumber="2" />
   <interval begin="120.00" end="180.00" id="e2det_WC_2" sampledSeconds="16.03" nVehEntered="2" nVehLeft="2" nVehSeen="2" meanSpeed="6.78" meanTimeLoss="4.22" meanOccupancy="2.46" maxOccupancy="10.14" meanMaxJamLengthInVehicles="0.02" meanMaxJamLengthInMeters="0.08" maxJamLengthInVehicles="1" maxJamLengthInMeters="5.00" jamLengthInVehiclesSum="1" jamLengthInMetersSum="5.00" meanHaltingDuration="1.50" maxHaltingDuration="2.00" haltingDurationSum="3.00" meanIntervalHaltingDuration="1.50" maxIntervalHaltingDuration="2.00" intervalHaltingDurationSum="3.00" startedHalts="2.00" meanVehicleNumber="0.32" maxVehicleNumber="1" />
   <interval begin="120.00" end="180.00" id="e2det_WC_3" sampledSeconds="4.32" nVehEntered="1" nVehLeft="1" nVehSeen="1" meanSpeed="12.56" meanTimeLoss="0.31" meanOccupancy="0.66" maxOccupancy="10.14" meanMaxJamLengthInVehicles="0.00" meanMaxJamLengthInMeters="0.00" maxJamLengthInVehicles="0" maxJamLengthInMeters="0.00" jamLengthInVehiclesSum="0" jamLengthInMetersSum="0.00" meanHaltingDuration="0.00" maxHaltingDuration="0.00" haltingDurationSum="0.00" meanIntervalHaltingDuration="0.00" maxIntervalHaltingDuration="0.00" intervalHaltingDurationSum="0.00" startedHalts="0.00" meanVehicleNumber="0.08" maxVehicleNumber="1" />
   <interval begin="120.00" end="180.00" id="e2det_WC_4" sampledSeconds="0.00" nVehEntered="0" nVehLeft="0" nVehSeen="0" meanSpeed="-1.00" meanTimeLoss="-1.00" meanOccupancy="0.00" maxOccupancy="0.00" meanMaxJamLengthInVehicles="0.00" meanMaxJamLengthInMeters="0.00" maxJamLengthInVehicles="0" maxJamLengthInMeters="0.00" jamLengthInVehiclesSum="0" jamLengthInMetersSum="0.00" meanHaltingDuration="0.00" maxHaltingDuration="0.00" haltingDurationSum="0.00" meanIntervalHaltingDuration="0.00" maxIntervalHaltingDuration="0.00" intervalHaltingDurationSum="0.00" startedHalts="0.00" meanVehicleNumber="0.00" maxVehicleNumber="0" />
   <interval begin="120.00" end="180.00" id="e2det_CN_2" sampledSeconds="10.27" nVehEntered="2" nVehLeft="2" nVehSeen="2" meanSpeed="10.57" meanTimeLoss="0.98" meanOccupancy="1.42" maxOccupancy="20.28" meanMaxJamLengthInVehicles="0.00" meanMaxJamLengthInMeters="0.00" maxJamLengthInVehicles="0" maxJamLengthInMeters="0.00" jamLengthInVehiclesSum="0" jamLengthInMetersSum="0.00" meanHaltingDuration="0.00" maxHaltingDuration="0.00" haltingDurationSum="0.00" meanIntervalHaltingDuration="0.00" maxIntervalHaltingDuration="0.00" intervalHaltingDurationSum="0.00" startedHalts="0.00" meanVehicleNumber="0.20" maxVehicleNumber="2" />
   <interval begin="120.00" end="180.00" id="e2det_CE_2" sampledSeconds="9.29" nVehEntered="2" nVehLeft="2" nVehSeen="2" meanSpeed="11.69" meanTimeLoss="0.75" meanOccupancy="1.41" maxOccupancy="10.14" meanMaxJamLengthInVehicles="0.00" meanMaxJamLengthInMeters="0.00" maxJamLengthInVehicles="0" maxJamLengthInMeters="0.00" jamLengthInVehiclesSum="0" jamLengthInMetersSum="0.00" meanHaltingDuration="0.00" maxHaltingDuration="0.00" haltingDurationSum="0.00" meanIntervalHaltingDuration="0.00" maxIntervalHaltingDuration="0.00" intervalHaltingDurationSum="0.00" startedHalts="0.00" meanVehicleNumber="0.18" maxVehicleNumber="1" />