<?xml version="1.0" encoding="UTF-8"?>

<!-- generated on 2021-10-20 14:01:50 by Eclipse SUMO sumo Version 1.10.0
<configuration xmlns:xsi="http://www.w3.org/2001/XMLSchema-instance" xsi:noNamespaceSchemaLocation="http://sumo.dlr.de/xsd/sumoConfiguration.xsd">

    <input>
        <net-file value="network.net.xml"/>
        <route-files value="vehicle_demands.rou.xml"/>
        <additional-files value="delay_based_solution_lights.add.xml"/>
    </input>

    <output>
        <tripinfo-output value="delay_based_tripinfo.xml"/>
    </output>

</configuration>
-->

<tripinfos xmlns:xsi="http://www.w3.org/2001/XMLSchema-instance" xsi:noNamespaceSchemaLocation="http://sumo.dlr.de/xsd/tripinfo_file.xsd">
    <tripinfo id="fA1forward.0" depart="0.00" departLane="fromA1_0" departPos="5.10" departSpeed="0.00" departDelay="0.00" arrival="13.00" arrivalLane="toA2_0" arrivalPos="25.85" arrivalSpeed="14.28" duration="13.00" routeLength="132.55" waitingTime="0.00" waitingCount="0" stopTime="0.00" timeLoss="3.84" rerouteNo="0" devices="tripinfo_fA1forward.0" vType="type2" speedFactor="1.06" vaporized=""/>
    <tripinfo id="fA2forward.0" depart="0.00" departLane="fromA2_0" departPos="4.10" departSpeed="0.00" departDelay="0.00" arrival="15.00" arrivalLane="toA1_0" arrivalPos="19.65" arrivalSpeed="14.20" duration="15.00" routeLength="135.54" waitingTime="0.00" waitingCount="0" stopTime="0.00" timeLoss="5.64" rerouteNo="0" devices="tripinfo_fA2forward.0" vType="type1" speedFactor="1.08" vaporized=""/>
    <tripinfo id="fA1right.0" depart="3.00" departLane="fromA1_0" departPos="5.10" departSpeed="0.00" departDelay="3.00" arrival="16.00" arrivalLane="toB2_0" arrivalPos="2.39" arrivalSpeed="14.02" duration="13.00" routeLength="103.14" waitingTime="0.00" waitingCount="0" stopTime="0.00" timeLoss="4.42" rerouteNo="0" devices="tripinfo_fA1right.0" vType="type2" speedFactor="1.01" vaporized=""/>
    <tripinfo id="fA2left.0" depart="2.00" departLane="fromA2_0" departPos="4.10" departSpeed="0.00" departDelay="2.00" arrival="18.00" arrivalLane="toB2_0" arrivalPos="2.39" arrivalSpeed="13.98" duration="16.00" routeLength="113.16" waitingTime="1.00" waitingCount="1" stopTime="0.00" timeLoss="7.55" rerouteNo="0" devices="tripinfo_fA2left.0" vType="type1" speedFactor="1.03" vaporized=""/>
    <tripinfo id="fA2right.0" depart="4.00" departLane="fromA2_0" departPos="6.10" departSpeed="0.00" departDelay="4.00" arrival="22.00" arrivalLane="toB1_0" arrivalPos="41.49" arrivalSpeed="10.39" duration="18.00" routeLength="105.51" waitingTime="0.00" waitingCount="0" stopTime="0.00" timeLoss="7.62" rerouteNo="0" devices="tripinfo_fA2right.0" vType="type3" speedFactor="0.83" vaporized=""/>
    <tripinfo id="fA2forward.1" depart="9.00" departLane="fromA2_0" departPos="5.10" departSpeed="0.00" departDelay="1.76" arrival="22.00" arrivalLane="toA1_0" arrivalPos="19.65" arrivalSpeed="14.71" duration="13.00" routeLength="134.54" waitingTime="0.00" waitingCount="0" stopTime="0.00" timeLoss="3.78" rerouteNo="0" devices="tripinfo_fA2forward.1" vType="type2" speedFactor="1.12" vaporized=""/>
    <tripinfo id="fA1left.0" depart="1.00" departLane="fromA1_0" departPos="5.10" departSpeed="0.00" departDelay="1.00" arrival="26.00" arrivalLane="toB1_0" arrivalPos="41.49" arrivalSpeed="11.99" duration="25.00" routeLength="117.36" waitingTime="6.00" waitingCount="2" stopTime="0.00" timeLoss="15.41" rerouteNo="0" devices="tripinfo_fA1left.0" vType="type2" speedFactor="0.94" vaporized=""/>
    <tripinfo id="fB1forward.0" depart="0.00" departLane="fromB1_0" departPos="5.10" departSpeed="0.00" departDelay="0.00" arrival="28.00" arrivalLane="toB2_0" arrivalPos="2.39" arrivalSpeed="14.36" duration="28.00" routeLength="103.45" waitingTime="13.00" waitingCount="1" stopTime="0.00" timeLoss="20.68" rerouteNo="0" devices="tripinfo_fB1forward.0" vType="type2" speedFactor="1.05" vaporized=""/>
    <tripinfo id="fB2forward.0" depart="0.00" departLane="fromB2_0" departPos="2.39" departSpeed="0.00" departDelay="0.00" arrival="29.00" arrivalLane="toB1_0" arrivalPos="41.49" arrivalSpeed="11.23" duration="29.00" routeLength="104.10" waitingTime="11.00" waitingCount="1" stopTime="0.00" timeLoss="20.07" rerouteNo="0" devices="tripinfo_fB2forward.0" vType="type2" speedFactor="0.86" vaporized=""/>
    <tripinfo id="fB2right.0" depart="3.00" departLane="fromB2_0" departPos="2.39" departSpeed="0.00" departDelay="3.00" arrival="29.00" arrivalLane="toA2_0" arrivalPos="25.85" arrivalSpeed="13.23" duration="26.00" routeLength="99.95" waitingTime="9.00" waitingCount="1" stopTime="0.00" timeLoss="17.81" rerouteNo="0" devices="tripinfo_fB2right.0" vType="type2" speedFactor="1.03" vaporized=""/>
    <tripinfo id="fB1right.0" depart="3.00" departLane="fromB1_0" departPos="4.10" departSpeed="0.00" departDelay="3.00" arrival="30.00" arrivalLane="toA1_0" arrivalPos="19.65" arrivalSpeed="12.53" duration="27.00" routeLength="105.72" waitingTime="8.00" waitingCount="1" stopTime="0.00" timeLoss="17.53" rerouteNo="0" devices="tripinfo_fB1right.0" vType="type1" speedFactor="0.94" vaporized=""/>
    <tripinfo id="fB1forward.1" depart="8.00" departLane="fromB1_0" departPos="5.10" departSpeed="0.00" departDelay="0.42" arrival="31.00" arrivalLane="toB2_0" arrivalPos="2.39" arrivalSpeed="13.02" duration="23.00" routeLength="103.45" waitingTime="3.00" waitingCount="1" stopTime="0.00" timeLoss="14.91" rerouteNo="0" devices="tripinfo_fB1forward.1" vType="type2" speedFactor="0.99" vaporized=""/>
    <tripinfo id="fB2forward.1" depart="11.00" departLane="fromB2_0" departPos="2.39" departSpeed="0.00" departDelay="0.09" arrival="32.00" arrivalLane="toB1_0" arrivalPos="41.49" arrivalSpeed="11.73" duration="21.00" routeLength="104.10" waitingTime="2.00" waitingCount="1" stopTime="0.00" timeLoss="12.34" rerouteNo="0" devices="tripinfo_fB2forward.1" vType="type1" speedFactor="0.88" vaporized=""/>
    <tripinfo id="fB1forward.2" depart="16.00" departLane="fromB1_0" departPos="5.10" departSpeed="0.00" departDelay="0.84" arrival="33.00" arrivalLane="toB2_0" arrivalPos="2.39" arrivalSpeed="13.67" duration="17.00" routeLength="103.45" waitingTime="0.00" waitingCount="0" stopTime="0.00" timeLoss="8.97" rerouteNo="0" devices="tripinfo_fB1forward.2" vType="type2" speedFactor="1.02" vaporized=""/>
    <tripinfo id="fB2forward.2" depart="22.00" departLane="fromB2_0" departPos="2.39" departSpeed="0.00" departDelay="0.18" arrival="35.00" arrivalLane="toB1_0" arrivalPos="41.49" arrivalSpeed="10.42" duration="13.00" routeLength="104.10" waitingTime="0.00" waitingCount="0" stopTime="0.00" timeLoss="3.05" rerouteNo="0" devices="tripinfo_fB2forward.2" vType="type2" speedFactor="0.83" vaporized=""/>
    <tripinfo id="fB1forward.3" depart="23.00" departLane="fromB1_0" departPos="4.10" departSpeed="0.00" departDelay="0.26" arrival="37.00" arrivalLane="toB2_0" arrivalPos="2.39" arrivalSpeed="12.03" duration="14.00" routeLength="104.45" waitingTime="0.00" waitingCount="0" stopTime="0.00" timeLoss="4.98" rerouteNo="0" devices="tripinfo_fB1forward.3" vType="type1" speedFactor="0.87" vaporized=""/>
    <tripinfo id="fB1left.0" depart="1.00" departLane="fromB1_0" departPos="5.10" departSpeed="0.00" departDelay="1.00" arrival="39.00" arrivalLane="toA2_0" arrivalPos="25.85" arrivalSpeed="11.68" duration="38.00" routeLength="120.30" waitingTime="15.00" waitingCount="3" stopTime="0.00" timeLoss="27.11" rerouteNo="0" devices="tripinfo_fB1left.0" vType="type2" speedFactor="0.89" vaporized=""/>
    <tripinfo id="fB1right.1" depart="29.00" departLane="fromB1_0" departPos="5.10" departSpeed="0.00" departDelay="0.20" arrival="42.00" arrivalLane="toA1_0" arrivalPos="19.65" arrivalSpeed="15.24" duration="13.00" routeLength="104.72" waitingTime="0.00" waitingCount="0" stopTime="0.00" timeLoss="4.53" rerouteNo="0" devices="tripinfo_fB1right.1" vType="type2" speedFactor="1.13" vaporized=""/>
    <tripinfo id="fB2left.0" depart="1.00" departLane="fromB2_0" departPos="2.39" departSpeed="0.00" departDelay="1.00" arrival="45.00" arrivalLane="toA1_0" arrivalPos="19.65" arrivalSpeed="15.06" duration="44.00" routeLength="119.92" waitingTime="22.00" waitingCount="3" stopTime="0.00" timeLoss="35.29" rerouteNo="0" devices="tripinfo_fB2left.0" vType="type2" speedFactor="1.09" vaporized=""/>
    <tripinfo id="fA1right.1" depart="34.00" departLane="fromA1_0" departPos="5.10" departSpeed="0.00" departDelay="0.04" arrival="50.00" arrivalLane="toB2_0" arrivalPos="2.39" arrivalSpeed="14.66" duration="16.00" routeLength="103.14" waitingTime="0.00" waitingCount="0" stopTime="0.00" timeLoss="8.61" rerouteNo="0" devices="tripinfo_fA1right.1" vType="type2" speedFactor="1.17" vaporized=""/>
    <tripinfo id="fA2right.1" depart="15.00" departLane="fromA2_0" departPos="4.10" departSpeed="0.00" departDelay="0.77" arrival="52.00" arrivalLane="toB1_0" arrivalPos="41.49" arrivalSpeed="12.22" duration="37.00" routeLength="107.51" waitingTime="18.00" waitingCount="1" stopTime="0.00" timeLoss="27.46" rerouteNo="0" devices="tripinfo_fA2right.1" vType="type1" speedFactor="0.94" vaporized=""/>
    <tripinfo id="fA2forward.2" depart="18.00" departLane="fromA2_0" departPos="5.10" departSpeed="0.00" departDelay="3.51" arrival="53.00" arrivalLane="toA1_0" arrivalPos="19.65" arrivalSpeed="12.14" duration="35.00" routeLength="134.54" waitingTime="16.00" waitingCount="1" stopTime="0.00" timeLoss="24.29" rerouteNo="0" devices="tripinfo_fA2forward.2" vType="type2" speedFactor="0.94" vaporized=""/>
    <tripinfo id="fA2right.2" depart="29.00" departLane="fromA2_0" departPos="5.10" departSpeed="0.00" departDelay="0.54" arrival="54.00" arrivalLane="toB1_0" arrivalPos="41.49" arrivalSpeed="12.67" duration="25.00" routeLength="106.51" waitingTime="5.00" waitingCount="1" stopTime="0.00" timeLoss="15.31" rerouteNo="0" devices="tripinfo_fA2right.2" vType="type2" speedFactor="0.95" vaporized=""/>
    <tripinfo id="fA2forward.3" depart="22.00" departLane="fromA2_0" departPos="4.10" departSpeed="0.00" departDelay="0.27" arrival="56.00" arrivalLane="toA1_0" arrivalPos="19.65" arrivalSpeed="11.47" duration="34.00" routeLength="135.54" waitingTime="12.00" waitingCount="1" stopTime="0.00" timeLoss="22.98" rerouteNo="0" devices="tripinfo_fA2forward.3" vType="type1" speedFactor="0.89" vaporized=""/>
    <tripinfo id="fA2right.3" depart="43.00" departLane="fromA2_0" departPos="5.10" departSpeed="0.00" departDelay="0.31" arrival="57.00" arrivalLane="toB1_0" arrivalPos="41.49" arrivalSpeed="13.13" duration="14.00" routeLength="106.51" waitingTime="0.00" waitingCount="0" stopTime="0.00" timeLoss="5.13" rerouteNo="0" devices="tripinfo_fA2right.3" vType="type2" speedFactor="1.03" vaporized=""/>
    <tripinfo id="fA1forward.1" depart="6.00" departLane="fromA1_0" departPos="6.10" departSpeed="0.00" departDelay="1.03" arrival="58.00" arrivalLane="toA2_0" arrivalPos="25.85" arrivalSpeed="11.32" duration="52.00" routeLength="131.55" waitingTime="24.00" waitingCount="1" stopTime="0.00" timeLoss="42.31" rerouteNo="0" devices="tripinfo_fA1forward.1" vType="type3" speedFactor="1.05" vaporized=""/>
    <tripinfo id="fA2forward.4" depart="32.00" departLane="fromA2_0" departPos="4.10" departSpeed="0.00" departDelay="3.03" arrival="58.00" arrivalLane="toA1_0" arrivalPos="19.65" arrivalSpeed="12.66" duration="26.00" routeLength="135.54" waitingTime="5.00" waitingCount="1" stopTime="0.00" timeLoss="15.07" rerouteNo="0" devices="tripinfo_fA2forward.4" vType="type1" speedFactor="0.93" vaporized=""/>
    <tripinfo id="fA1forward.2" depart="10.00" departLane="fromA1_0" departPos="6.10" departSpeed="0.00" departDelay="0.07" arrival="59.00" arrivalLane="toA2_0" arrivalPos="25.85" arrivalSpeed="11.31" duration="49.00" routeLength="131.55" waitingTime="23.00" waitingCount="1" stopTime="0.00" timeLoss="38.78" rerouteNo="0" devices="tripinfo_fA1forward.2" vType="type3" speedFactor="0.93" vaporized=""/>
    <tripinfo id="fA2forward.5" depart="37.00" departLane="fromA2_0" departPos="5.10" departSpeed="0.00" departDelay="0.78" arrival="60.00" arrivalLane="toA1_0" arrivalPos="19.65" arrivalSpeed="12.90" duration="23.00" routeLength="134.54" waitingTime="2.00" waitingCount="1" stopTime="0.00" timeLoss="12.33" rerouteNo="0" devices="tripinfo_fA2forward.5" vType="type2" speedFactor="0.97" vaporized=""/>
    <tripinfo id="fA1forward.3" depart="15.00" departLane="fromA1_0" departPos="6.10" departSpeed="0.00" departDelay="0.10" arrival="61.00" arrivalLane="toA2_0" arrivalPos="25.85" arrivalSpeed="11.89" duration="46.00" routeLength="131.55" waitingTime="19.00" waitingCount="1" stopTime="0.00" timeLoss="37.75" rerouteNo="0" devices="tripinfo_fA1forward.3" vType="type3" speedFactor="1.16" vaporized=""/>
    <tripinfo id="fA2forward.6" depart="46.00" departLane="fromA2_0" departPos="5.10" departSpeed="0.00" departDelay="2.54" arrival="62.00" arrivalLane="toA1_0" arrivalPos="19.65" arrivalSpeed="12.19" duration="16.00" routeLength="134.54" waitingTime="0.00" waitingCount="0" stopTime="0.00" timeLoss="5.11" rerouteNo="0" devices="tripinfo_fA2forward.6" vType="type2" speedFactor="0.96" vaporized=""/>
    <tripinfo id="fA1forward.8" depart="40.00" departLane="fromA1_0" departPos="5.10" departSpeed="0.00" departDelay="0.27" arrival="63.00" arrivalLane="toA2_0" arrivalPos="25.85" arrivalSpeed="15.02" duration="23.00" routeLength="132.55" waitingTime="2.00" waitingCount="2" stopTime="0.00" timeLoss="13.95" rerouteNo="0" devices="tripinfo_fA1forward.8" vType="type2" speedFactor="1.10" vaporized=""/>
    <tripinfo id="fA1forward.4" depart="20.00" departLane="fromA1_0" departPos="5.10" departSpeed="0.00" departDelay="0.14" arrival="65.00" arrivalLane="toA2_0" arrivalPos="25.85" arrivalSpeed="13.44" duration="45.00" routeLength="132.55" waitingTime="18.00" waitingCount="1" stopTime="0.00" timeLoss="35.00" rerouteNo="0" devices="tripinfo_fA1forward.4" vType="type2" speedFactor="1.01" vaporized=""/>
    <tripinfo id="fA2forward.7" depart="51.00" departLane="fromA2_0" departPos="5.10" departSpeed="0.00" departDelay="0.30" arrival="65.00" arrivalLane="toA1_0" arrivalPos="19.65" arrivalSpeed="13.44" duration="14.00" routeLength="134.54" waitingTime="0.00" waitingCount="0" stopTime="0.00" timeLoss="3.88" rerouteNo="0" devices="tripinfo_fA2forward.7" vType="type2" speedFactor="1.00" vaporized=""/>
    <tripinfo id="fA1forward.5" depart="25.00" departLane="fromA1_0" departPos="5.10" departSpeed="0.00" departDelay="0.17" arrival="67.00" arrivalLane="toA2_0" arrivalPos="25.85" arrivalSpeed="12.54" duration="42.00" routeLength="132.55" waitingTime="16.00" waitingCount="1" stopTime="0.00" timeLoss="31.00" rerouteNo="0" devices="tripinfo_fA1forward.5" vType="type2" speedFactor="0.92" vaporized=""/>
    <tripinfo id="fA1forward.6" depart="30.00" departLane="fromA1_0" departPos="4.10" departSpeed="0.00" departDelay="0.20" arrival="69.00" arrivalLane="toA2_0" arrivalPos="25.85" arrivalSpeed="15.28" duration="39.00" routeLength="133.55" waitingTime="13.00" waitingCount="1" stopTime="0.00" timeLoss="29.92" rerouteNo="0" devices="tripinfo_fA1forward.6" vType="type1" speedFactor="1.18" vaporized=""/>
    <tripinfo id="fA1forward.7" depart="37.00" departLane="fromA1_0" departPos="4.10" departSpeed="0.00" departDelay="2.24" arrival="70.00" arrivalLane="toA2_0" arrivalPos="25.85" arrivalSpeed="13.08" duration="33.00" routeLength="133.55" waitingTime="9.00" waitingCount="1" stopTime="0.00" timeLoss="23.09" rerouteNo="0" devices="tripinfo_fA1forward.7" vType="type1" speedFactor="0.99" vaporized=""/>
    <tripinfo id="fA1left.1" depart="21.00" departLane="fromA1_0" departPos="4.10" departSpeed="0.00" departDelay="0.43" arrival="72.00" arrivalLane="toB1_0" arrivalPos="41.49" arrivalSpeed="12.84" duration="51.00" routeLength="118.36" waitingTime="27.00" waitingCount="3" stopTime="0.00" timeLoss="41.25" rerouteNo="0" devices="tripinfo_fA1left.1" vType="type1" speedFactor="0.98" vaporized=""/>
    <tripinfo id="fA1left.2" depart="43.00" departLane="fromA1_0" departPos="5.10" departSpeed="0.00" departDelay="1.86" arrival="74.00" arrivalLane="toB1_0" arrivalPos="41.49" arrivalSpeed="11.30" duration="31.00" routeLength="117.36" waitingTime="9.00" waitingCount="2" stopTime="0.00" timeLoss="20.30" rerouteNo="0" devices="tripinfo_fA1left.2" vType="type2" speedFactor="0.90" vaporized=""/>
    <tripinfo id="fB1forward.4" depart="32.00" departLane="fromB1_0" departPos="5.10" departSpeed="0.00" departDelay="1.68" arrival="76.00" arrivalLane="toB2_0" arrivalPos="2.39" arrivalSpeed="15.20" duration="44.00" routeLength="103.45" waitingTime="28.00" waitingCount="1" stopTime="0.00" timeLoss="37.24" rerouteNo="0" devices="tripinfo_fB1forward.4" vType="type2" speedFactor="1.15" vaporized=""/>
    <tripinfo id="fB1right.2" depart="58.00" departLane="fromB1_0" departPos="5.10" departSpeed="0.00" departDelay="0.40" arrival="77.00" arrivalLane="toA1_0" arrivalPos="19.65" arrivalSpeed="13.74" duration="19.00" routeLength="104.72" waitingTime="2.00" waitingCount="1" stopTime="0.00" timeLoss="9.95" rerouteNo="0" devices="tripinfo_fB1right.2" vType="type2" speedFactor="1.02" vaporized=""/>
    <tripinfo id="fB1forward.5" depart="38.00" departLane="fromB1_0" departPos="5.10" departSpeed="0.00" departDelay="0.10" arrival="78.00" arrivalLane="toB2_0" arrivalPos="2.39" arrivalSpeed="16.26" duration="40.00" routeLength="103.45" waitingTime="23.00" waitingCount="1" stopTime="0.00" timeLoss="33.40" rerouteNo="0" devices="tripinfo_fB1forward.5" vType="type2" speedFactor="1.18" vaporized=""/>
    <tripinfo id="fB2forward.3" depart="33.00" departLane="fromB2_0" departPos="2.39" departSpeed="0.00" departDelay="0.27" arrival="81.00" arrivalLane="toB1_0" arrivalPos="41.49" arrivalSpeed="10.40" duration="48.00" routeLength="104.10" waitingTime="25.00" waitingCount="1" stopTime="0.00" timeLoss="40.38" rerouteNo="0" devices="tripinfo_fB2forward.3" vType="type3" speedFactor="1.01" vaporized=""/>
    <tripinfo id="fB2forward.4" depart="44.00" departLane="fromB2_0" departPos="2.39" departSpeed="0.00" departDelay="0.36" arrival="83.00" arrivalLane="toB1_0" arrivalPos="41.49" arrivalSpeed="14.00" duration="39.00" routeLength="104.10" waitingTime="20.00" waitingCount="1" stopTime="0.00" timeLoss="31.59" rerouteNo="0" devices="tripinfo_fB2forward.4" vType="type2" speedFactor="1.09" vaporized=""/>
    <tripinfo id="fB1forward.6" depart="46.00" departLane="fromB1_0" departPos="6.10" departSpeed="0.00" departDelay="0.53" arrival="85.00" arrivalLane="toB2_0" arrivalPos="2.39" arrivalSpeed="12.06" duration="39.00" routeLength="102.45" waitingTime="16.00" waitingCount="1" stopTime="0.00" timeLoss="31.26" rerouteNo="0" devices="tripinfo_fB1forward.6" vType="type3" speedFactor="1.04" vaporized=""/>
    <tripinfo id="fB2forward.5" depart="55.00" departLane="fromB2_0" departPos="2.39" departSpeed="0.00" departDelay="0.45" arrival="85.00" arrivalLane="toB1_0" arrivalPos="41.49" arrivalSpeed="10.95" duration="30.00" routeLength="104.10" waitingTime="8.00" waitingCount="1" stopTime="0.00" timeLoss="20.57" rerouteNo="0" devices="tripinfo_fB2forward.5" vType="type1" speedFactor="0.85" vaporized=""/>
    <tripinfo id="fB1forward.7" depart="54.00" departLane="fromB1_0" departPos="6.10" departSpeed="0.00" departDelay="0.95" arrival="88.00" arrivalLane="toB2_0" arrivalPos="2.39" arrivalSpeed="11.74" duration="34.00" routeLength="102.45" waitingTime="12.00" waitingCount="1" stopTime="0.00" timeLoss="24.85" rerouteNo="0" devices="tripinfo_fB1forward.7" vType="type3" speedFactor="0.88" vaporized=""/>
    <tripinfo id="fB2forward.6" depart="66.00" departLane="fromB2_0" departPos="2.39" departSpeed="0.00" departDelay="0.55" arrival="88.00" arrivalLane="toB1_0" arrivalPos="41.49" arrivalSpeed="11.97" duration="22.00" routeLength="104.10" waitingTime="0.00" waitingCount="0" stopTime="0.00" timeLoss="13.48" rerouteNo="0" devices="tripinfo_fB2forward.6" vType="type3" speedFactor="0.97" vaporized=""/>
    <tripinfo id="fB1forward.8" depart="61.00" departLane="fromB1_0" departPos="4.10" departSpeed="0.00" departDelay="0.37" arrival="90.00" arrivalLane="toB2_0" arrivalPos="2.39" arrivalSpeed="13.32" duration="29.00" routeLength="104.45" waitingTime="8.00" waitingCount="1" stopTime="0.00" timeLoss="20.57" rerouteNo="0" devices="tripinfo_fB1forward.8" vType="type1" speedFactor="1.00" vaporized=""/>
    <tripinfo id="fB1forward.9" depart="69.00" departLane="fromB1_0" departPos="6.10" departSpeed="0.00" departDelay="0.79" arrival="92.00" arrivalLane="toB2_0" arrivalPos="2.39" arrivalSpeed="12.38" duration="23.00" routeLength="102.45" waitingTime="3.00" waitingCount="2" stopTime="0.00" timeLoss="16.36" rerouteNo="0" devices="tripinfo_fB1forward.9" vType="type3" speedFactor="1.12" vaporized=""/>
    <tripinfo id="fB1forward.10" depart="80.00" departLane="fromB1_0" departPos="5.10" departSpeed="0.00" departDelay="4.21" arrival="94.00" arrivalLane="toB2_0" arrivalPos="2.39" arrivalSpeed="12.19" duration="14.00" routeLength="103.45" waitingTime="0.00" waitingCount="0" stopTime="0.00" timeLoss="5.71" rerouteNo="0" devices="tripinfo_fB1forward.10" vType="type2" speedFactor="0.91" vaporized=""/>
    <tripinfo id="fB2forward.7" depart="77.00" departLane="fromB2_0" departPos="2.39" departSpeed="0.00" departDelay="0.64" arrival="94.00" arrivalLane="toB1_0" arrivalPos="41.49" arrivalSpeed="13.20" duration="17.00" routeLength="104.10" waitingTime="0.00" waitingCount="0" stopTime="0.00" timeLoss="8.93" rerouteNo="0" devices="tripinfo_fB2forward.7" vType="type3" speedFactor="1.04" vaporized=""/>
    <tripinfo id="fB2left.1" depart="52.00" departLane="fromB2_0" departPos="2.39" departSpeed="0.00" departDelay="0.57" arrival="99.00" arrivalLane="toA1_0" arrivalPos="19.65" arrivalSpeed="11.87" duration="47.00" routeLength="119.92" waitingTime="24.00" waitingCount="2" stopTime="0.00" timeLoss="36.92" rerouteNo="0" devices="tripinfo_fB2left.1" vType="type2" speedFactor="0.90" vaporized=""/>
    <tripinfo id="fB1left.1" depart="36.00" departLane="fromB1_0" departPos="6.10" departSpeed="0.00" departDelay="0.00" arrival="102.00" arrivalLane="toA2_0" arrivalPos="25.85" arrivalSpeed="9.98" duration="66.00" routeLength="119.30" waitingTime="36.00" waitingCount="2" stopTime="0.00" timeLoss="56.97" rerouteNo="0" devices="tripinfo_fB1left.1" vType="type3" speedFactor="1.02" vaporized=""/>
    <tripinfo id="fA2right.4" depart="57.00" departLane="fromA2_0" departPos="5.10" departSpeed="0.00" departDelay="0.08" arrival="104.00" arrivalLane="toB1_0" arrivalPos="41.49" arrivalSpeed="13.67" duration="47.00" routeLength="106.51" waitingTime="28.00" waitingCount="1" stopTime="0.00" timeLoss="39.85" rerouteNo="0" devices="tripinfo_fA2right.4" vType="type2" speedFactor="1.17" vaporized=""/>
    <tripinfo id="fB1left.2" depart="78.00" departLane="fromB1_0" departPos="5.10" departSpeed="0.00" departDelay="6.00" arrival="104.00" arrivalLane="toA2_0" arrivalPos="25.85" arrivalSpeed="11.67" duration="26.00" routeLength="120.30" waitingTime="2.00" waitingCount="2" stopTime="0.00" timeLoss="15.82" rerouteNo="0" devices="tripinfo_fB1left.2" vType="type2" speedFactor="0.94" vaporized=""/>
    <tripinfo id="fA1right.2" depart="70.00" departLane="fromA1_0" departPos="4.10" departSpeed="0.00" departDelay="2.08" arrival="105.00" arrivalLane="toB2_0" arrivalPos="2.39" arrivalSpeed="11.06" duration="35.00" routeLength="104.14" waitingTime="15.00" waitingCount="1" stopTime="0.00" timeLoss="27.38" rerouteNo="0" devices="tripinfo_fA1right.2" vType="type1" speedFactor="1.08" vaporized=""/>
    <tripinfo id="fA1forward.9" depart="55.00" departLane="fromA1_0" departPos="5.10" departSpeed="0.00" departDelay="10.31" arrival="106.00" arrivalLane="toA2_0" arrivalPos="25.85" arrivalSpeed="14.29" duration="51.00" routeLength="132.55" waitingTime="28.00" waitingCount="1" stopTime="0.00" timeLoss="41.26" rerouteNo="0" devices="tripinfo_fA1forward.9" vType="type2" speedFactor="1.04" vaporized=""/>
    <tripinfo id="fA2forward.8" depart="60.00" departLane="fromA2_0" departPos="5.10" departSpeed="0.00" departDelay="2.06" arrival="106.00" arrivalLane="toA1_0" arrivalPos="19.65" arrivalSpeed="15.04" duration="46.00" routeLength="134.54" waitingTime="26.00" waitingCount="1" stopTime="0.00" timeLoss="36.57" rerouteNo="0" devices="tripinfo_fA2forward.8" vType="type2" speedFactor="1.10" vaporized=""/>
    <tripinfo id="fA2right.5" depart="72.00" departLane="fromA2_0" departPos="4.10" departSpeed="0.00" departDelay="0.85" arrival="107.00" arrivalLane="toB1_0" arrivalPos="41.49" arrivalSpeed="13.04" duration="35.00" routeLength="107.51" waitingTime="16.00" waitingCount="1" stopTime="0.00" timeLoss="26.53" rerouteNo="0" devices="tripinfo_fA2right.5" vType="type1" speedFactor="0.99" vaporized=""/>
    <tripinfo id="fA2forward.9" depart="66.00" departLane="fromA2_0" departPos="5.10" departSpeed="0.00" departDelay="0.81" arrival="108.00" arrivalLane="toA1_0" arrivalPos="19.65" arrivalSpeed="13.57" duration="42.00" routeLength="134.54" waitingTime="22.00" waitingCount="1" stopTime="0.00" timeLoss="32.26" rerouteNo="0" devices="tripinfo_fA2forward.9" vType="type2" speedFactor="1.02" vaporized=""/>
    <tripinfo id="fA2right.6" depart="86.00" departLane="fromA2_0" departPos="5.10" departSpeed="0.00" departDelay="0.63" arrival="110.00" arrivalLane="toB1_0" arrivalPos="41.49" arrivalSpeed="12.41" duration="24.00" routeLength="106.51" waitingTime="5.00" waitingCount="1" stopTime="0.00" timeLoss="14.22" rerouteNo="0" devices="tripinfo_fA2right.6" vType="type2" speedFactor="0.96" vaporized=""/>
    <tripinfo id="fA1forward.11" depart="58.00" departLane="fromA1_0" departPos="6.10" departSpeed="0.00" departDelay="3.37" arrival="113.00" arrivalLane="toA2_0" arrivalPos="25.85" arrivalSpeed="10.72" duration="55.00" routeLength="131.55" waitingTime="27.00" waitingCount="1" stopTime="0.00" timeLoss="43.75" rerouteNo="0" devices="tripinfo_fA1forward.11" vType="type3" speedFactor="0.85" vaporized=""/>
    <tripinfo id="fA2right.7" depart="100.00" departLane="fromA2_0" departPos="5.10" departSpeed="0.00" departDelay="0.40" arrival="113.00" arrivalLane="toB1_0" arrivalPos="41.49" arrivalSpeed="13.14" duration="13.00" routeLength="106.51" waitingTime="0.00" waitingCount="0" stopTime="0.00" timeLoss="3.70" rerouteNo="0" devices="tripinfo_fA2right.7" vType="type2" speedFactor="0.98" vaporized=""/>
    <tripinfo id="fA2forward.10" depart="75.00" departLane="fromA2_0" departPos="6.10" departSpeed="0.00" departDelay="2.57" arrival="115.00" arrivalLane="toA1_0" arrivalPos="19.65" arrivalSpeed="11.84" duration="40.00" routeLength="133.54" waitingTime="12.00" waitingCount="1" stopTime="0.00" timeLoss="28.20" rerouteNo="0" devices="tripinfo_fA2forward.10" vType="type3" speedFactor="0.88" vaporized=""/>
    <tripinfo id="fA1forward.16" depart="80.00" departLane="fromA1_0" departPos="4.10" departSpeed="0.00" departDelay="0.54" arrival="115.00" arrivalLane="toA2_0" arrivalPos="25.85" arrivalSpeed="13.09" duration="35.00" routeLength="133.55" waitingTime="11.00" waitingCount="2" stopTime="0.00" timeLoss="25.25" rerouteNo="0" devices="tripinfo_fA1forward.16" vType="type1" speedFactor="1.02" vaporized=""/>
    <tripinfo id="fA2forward.11" depart="80.00" departLane="fromA2_0" departPos="5.10" departSpeed="0.00" departDelay="0.33" arrival="116.00" arrivalLane="toA1_0" arrivalPos="19.65" arrivalSpeed="12.84" duration="36.00" routeLength="134.54" waitingTime="11.00" waitingCount="1" stopTime="0.00" timeLoss="26.45" rerouteNo="0" devices="tripinfo_fA2forward.11" vType="type2" speedFactor="1.02" vaporized=""/>
    <tripinfo id="fA1forward.12" depart="62.00" departLane="fromA1_0" departPos="4.10" departSpeed="0.00" departDelay="2.41" arrival="117.00" arrivalLane="toA2_0" arrivalPos="25.85" arrivalSpeed="13.66" duration="55.00" routeLength="133.55" waitingTime="27.00" waitingCount="2" stopTime="0.00" timeLoss="44.66" rerouteNo="0" devices="tripinfo_fA1forward.12" vType="type1" speedFactor="1.00" vaporized=""/>
    <tripinfo id="fA1forward.10" depart="56.00" departLane="fromA1_0" departPos="4.10" departSpeed="0.00" departDelay="6.34" arrival="118.00" arrivalLane="toA2_0" arrivalPos="25.85" arrivalSpeed="14.45" duration="62.00" routeLength="133.55" waitingTime="32.00" waitingCount="3" stopTime="0.00" timeLoss="52.98" rerouteNo="0" devices="tripinfo_fA1forward.10" vType="type1" speedFactor="1.09" vaporized=""/>
    <tripinfo id="fA2forward.12" depart="89.00" departLane="fromA2_0" departPos="5.10" departSpeed="0.00" departDelay="2.08" arrival="118.00" arrivalLane="toA1_0" arrivalPos="19.65" arrivalSpeed="13.51" duration="29.00" routeLength="134.54" waitingTime="5.00" waitingCount="1" stopTime="0.00" timeLoss="19.25" rerouteNo="0" devices="tripinfo_fA2forward.12" vType="type2" speedFactor="1.03" vaporized=""/>
    <tripinfo id="fA1forward.13" depart="69.00" departLane="fromA1_0" departPos="5.10" departSpeed="0.00" departDelay="4.44" arrival="120.00" arrivalLane="toA2_0" arrivalPos="25.85" arrivalSpeed="15.70" duration="51.00" routeLength="132.55" waitingTime="24.00" waitingCount="1" stopTime="0.00" timeLoss="42.07" rerouteNo="0" devices="tripinfo_fA1forward.13" vType="type2" speedFactor="1.14" vaporized=""/>
    <tripinfo id="fA2forward.13" depart="95.00" departLane="fromA2_0" departPos="5.10" departSpeed="0.00" departDelay="0.84" arrival="120.00" arrivalLane="toA1_0" arrivalPos="19.65" arrivalSpeed="14.14" duration="25.00" routeLength="134.54" waitingTime="1.00" waitingCount="1" stopTime="0.00" timeLoss="14.95" rerouteNo="0" devices="tripinfo_fA2forward.13" vType="type2" speedFactor="1.03" vaporized=""/>
    <tripinfo id="fA1forward.14" depart="73.00" departLane="fromA1_0" departPos="5.10" departSpeed="0.00" departDelay="3.48" arrival="122.00" arrivalLane="toA2_0" arrivalPos="25.85" arrivalSpeed="13.85" duration="49.00" routeLength="132.55" waitingTime="24.00" waitingCount="1" stopTime="0.00" timeLoss="38.87" rerouteNo="0" devices="tripinfo_fA1forward.14" vType="type2" speedFactor="1.02" vaporized=""/>