<?xml version="1.0" encoding="UTF-8"?>

<!-- generated on 2021-10-20 13:19:03 by Eclipse SUMO sumo Version 1.10.0
<configuration xmlns:xsi="http://www.w3.org/2001/XMLSchema-instance" xsi:noNamespaceSchemaLocation="http://sumo.dlr.de/xsd/sumoConfiguration.xsd">

    <input>
        <net-file value="extended_network.net.xml"/>
        <route-files value="extended_routes.rou.xml"/>
        <additional-files value="D_C_offset.add.xml"/>
    </input>

    <output>
        <tripinfo-output value="optimal_extended_tripinfo.xml"/>
    </output>

</configuration>
-->

<tripinfos xmlns:xsi="http://www.w3.org/2001/XMLSchema-instance" xsi:noNamespaceSchemaLocation="http://sumo.dlr.de/xsd/tripinfo_file.xsd">
    <tripinfo id="8" depart="16.00" departLane="fromA1_0" departPos="5.10" departSpeed="0.00" departDelay="0.00" arrival="29.00" arrivalLane="toB1_0" arrivalPos="41.49" arrivalSpeed="15.03" duration="13.00" routeLength="117.36" waitingTime="0.00" waitingCount="0" stopTime="0.00" timeLoss="4.78" rerouteNo="0" devices="tripinfo_8" vType="DEFAULT_VEHTYPE" speedFactor="1.08" vaporized=""/>
    <tripinfo id="11" depart="22.00" departLane="fromA3_0" departPos="5.10" departSpeed="0.00" departDelay="0.00" arrival="30.00" arrivalLane="fromA33_0" arrivalPos="19.45" arrivalSpeed="10.77" duration="8.00" routeLength="56.51" waitingTime="0.00" waitingCount="0" stopTime="0.00" timeLoss="2.94" rerouteNo="0" devices="tripinfo_11" vType="DEFAULT_VEHTYPE" speedFactor="0.83" vaporized=""/>
    <tripinfo id="12" depart="24.00" departLane="toA11_0" departPos="5.10" departSpeed="0.00" departDelay="0.00" arrival="31.00" arrivalLane="toA1_0" arrivalPos="19.65" arrivalSpeed="14.01" duration="7.00" routeLength="51.71" waitingTime="0.00" waitingCount="0" stopTime="0.00" timeLoss="3.17" rerouteNo="0" devices="tripinfo_12" vType="DEFAULT_VEHTYPE" speedFactor="1.05" vaporized=""/>
    <tripinfo id="10" depart="20.00" departLane="fromD1_0" departPos="5.10" departSpeed="0.00" departDelay="0.00" arrival="43.00" arrivalLane="toB2_0" arrivalPos="2.39" arrivalSpeed="14.06" duration="23.00" routeLength="220.51" waitingTime="0.00" waitingCount="0" stopTime="0.00" timeLoss="5.82" rerouteNo="0" devices="tripinfo_10" vType="DEFAULT_VEHTYPE" speedFactor="1.03" vaporized=""/>
    <tripinfo id="7" depart="14.00" departLane="fromB2_0" departPos="2.39" departSpeed="0.00" departDelay="0.00" arrival="53.00" arrivalLane="toB1_0" arrivalPos="41.49" arrivalSpeed="13.48" duration="39.00" routeLength="104.10" waitingTime="23.00" waitingCount="1" stopTime="0.00" timeLoss="30.66" rerouteNo="0" devices="tripinfo_7" vType="DEFAULT_VEHTYPE" speedFactor="1.01" vaporized=""/>
    <tripinfo id="0" depart="0.00" departLane="fromB1_0" departPos="5.10" departSpeed="0.00" departDelay="0.00" arrival="58.00" arrivalLane="A2toD_0" arrivalPos="18.64" arrivalSpeed="13.44" duration="58.00" routeLength="157.56" waitingTime="37.00" waitingCount="1" stopTime="0.00" timeLoss="46.56" rerouteNo="0" devices="tripinfo_0" vType="DEFAULT_VEHTYPE" speedFactor="1.06" vaporized=""/>
    <tripinfo id="5" depart="10.00" departLane="fromA1_0" departPos="5.10" departSpeed="0.00" departDelay="0.00" arrival="60.00" arrivalLane="toA3_0" arrivalPos="33.87" arrivalSpeed="13.02" duration="50.00" routeLength="252.62" waitingTime="22.00" waitingCount="1" stopTime="0.00" timeLoss="30.03" rerouteNo="0" devices="tripinfo_5" vType="DEFAULT_VEHTYPE" speedFactor="0.94" vaporized=""/>
    <tripinfo id="24" depart="48.00" departLane="fromB1_0" departPos="5.10" departSpeed="0.00" departDelay="0.00" arrival="61.00" arrivalLane="toA1_0" arrivalPos="19.65" arrivalSpeed="15.25" duration="13.00" routeLength="104.72" waitingTime="0.00" waitingCount="0" stopTime="0.00" timeLoss="4.77" rerouteNo="0" devices="tripinfo_24" vType="DEFAULT_VEHTYPE" speedFactor="1.12" vaporized=""/>
    <tripinfo id="27" depart="54.00" departLane="fromB2_0" departPos="2.39" departSpeed="0.00" departDelay="0.00" arrival="65.00" arrivalLane="toB1_0" arrivalPos="41.49" arrivalSpeed="12.95" duration="11.00" routeLength="104.10" waitingTime="0.00" waitingCount="0" stopTime="0.00" timeLoss="3.06" rerouteNo="0" devices="tripinfo_27" vType="DEFAULT_VEHTYPE" speedFactor="0.99" vaporized=""/>
    <tripinfo id="16" depart="32.00" departLane="fromB1_0" departPos="5.10" departSpeed="0.00" departDelay="0.00" arrival="69.00" arrivalLane="toD2_0" arrivalPos="26.05" arrivalSpeed="10.74" duration="37.00" routeLength="219.14" waitingTime="6.00" waitingCount="1" stopTime="0.00" timeLoss="16.61" rerouteNo="0" devices="tripinfo_16" vType="DEFAULT_VEHTYPE" speedFactor="0.86" vaporized=""/>
    <tripinfo id="31" depart="62.00" departLane="fromB1_0" departPos="5.10" departSpeed="0.00" departDelay="0.00" arrival="73.00" arrivalLane="toB2_0" arrivalPos="2.39" arrivalSpeed="12.68" duration="11.00" routeLength="103.45" waitingTime="0.00" waitingCount="0" stopTime="0.00" timeLoss="3.05" rerouteNo="0" devices="tripinfo_31" vType="DEFAULT_VEHTYPE" speedFactor="0.94" vaporized=""/>
    <tripinfo id="14" depart="28.00" departLane="fromD1_0" departPos="5.10" departSpeed="0.00" departDelay="0.00" arrival="97.00" arrivalLane="toB1_0" arrivalPos="41.49" arrivalSpeed="11.52" duration="69.00" routeLength="214.86" waitingTime="41.00" waitingCount="1" stopTime="0.00" timeLoss="49.53" rerouteNo="0" devices="tripinfo_14" vType="DEFAULT_VEHTYPE" speedFactor="0.89" vaporized=""/>
    <tripinfo id="28" depart="56.00" departLane="fromA1_0" departPos="5.10" departSpeed="0.00" departDelay="0.00" arrival="97.00" arrivalLane="toB2_0" arrivalPos="2.39" arrivalSpeed="12.81" duration="41.00" routeLength="103.14" waitingTime="22.00" waitingCount="1" stopTime="0.00" timeLoss="31.66" rerouteNo="0" devices="tripinfo_28" vType="DEFAULT_VEHTYPE" speedFactor="0.93" vaporized=""/>
    <tripinfo id="34" depart="68.00" departLane="fromA3_0" departPos="5.10" departSpeed="0.00" departDelay="0.00" arrival="98.00" arrivalLane="toA1_0" arrivalPos="19.65" arrivalSpeed="14.98" duration="30.00" routeLength="254.37" waitingTime="3.00" waitingCount="1" stopTime="0.00" timeLoss="13.81" rerouteNo="0" devices="tripinfo_34" vType="DEFAULT_VEHTYPE" speedFactor="1.16" vaporized=""/>
    <tripinfo id="17" depart="34.00" departLane="fromA3_0" departPos="5.10" departSpeed="0.00" departDelay="0.00" arrival="99.00" arrivalLane="toB1_0" arrivalPos="41.49" arrivalSpeed="14.46" duration="65.00" routeLength="226.34" waitingTime="35.00" waitingCount="2" stopTime="0.00" timeLoss="48.62" rerouteNo="0" devices="tripinfo_17" vType="DEFAULT_VEHTYPE" speedFactor="1.09" vaporized=""/>
    <tripinfo id="29" depart="59.00" departLane="fromA1_0" departPos="5.10" departSpeed="0.00" departDelay="1.00" arrival="101.00" arrivalLane="toA2_0" arrivalPos="36.27" arrivalSpeed="11.06" duration="42.00" routeLength="142.13" waitingTime="21.00" waitingCount="1" stopTime="0.00" timeLoss="29.55" rerouteNo="0" devices="tripinfo_29" vType="DEFAULT_VEHTYPE" speedFactor="0.88" vaporized=""/>
    <tripinfo id="33" depart="66.00" departLane="fromA1_0" departPos="5.10" departSpeed="0.00" departDelay="0.00" arrival="105.00" arrivalLane="A2toD_0" arrivalPos="18.64" arrivalSpeed="12.64" duration="39.00" routeLength="169.81" waitingTime="15.00" waitingCount="1" stopTime="0.00" timeLoss="25.10" rerouteNo="0" devices="tripinfo_33" vType="DEFAULT_VEHTYPE" speedFactor="0.94" vaporized=""/>
    <tripinfo id="38" depart="76.00" departLane="fromD2_0" departPos="5.10" departSpeed="0.00" departDelay="0.00" arrival="105.00" arrivalLane="toA3_0" arrivalPos="33.87" arrivalSpeed="11.16" duration="29.00" routeLength="120.23" waitingTime="11.00" waitingCount="1" stopTime="0.00" timeLoss="17.99" rerouteNo="0" devices="tripinfo_38" vType="DEFAULT_VEHTYPE" speedFactor="0.89" vaporized=""/>
    <tripinfo id="45" depart="90.00" departLane="fromA1_0" departPos="5.10" departSpeed="0.00" departDelay="0.00" arrival="106.00" arrivalLane="toB1_0" arrivalPos="41.49" arrivalSpeed="12.00" duration="16.00" routeLength="117.36" waitingTime="0.00" waitingCount="0" stopTime="0.00" timeLoss="5.20" rerouteNo="0" devices="tripinfo_45" vType="DEFAULT_VEHTYPE" speedFactor="0.92" vaporized=""/>
    <tripinfo id="47" depart="94.00" departLane="fromA1_0" departPos="5.10" departSpeed="0.00" departDelay="0.00" arrival="110.00" arrivalLane="toA2_0" arrivalPos="36.27" arrivalSpeed="14.82" duration="16.00" routeLength="142.13" waitingTime="0.00" waitingCount="0" stopTime="0.00" timeLoss="6.53" rerouteNo="0" devices="tripinfo_47" vType="DEFAULT_VEHTYPE" speedFactor="1.13" vaporized=""/>
    <tripinfo id="15" depart="31.00" departLane="fromD1_0" departPos="5.10" departSpeed="0.00" departDelay="1.00" arrival="113.00" arrivalLane="toB2_0" arrivalPos="2.39" arrivalSpeed="12.53" duration="82.00" routeLength="220.51" waitingTime="56.00" waitingCount="1" stopTime="0.00" timeLoss="63.68" rerouteNo="0" devices="tripinfo_15" vType="DEFAULT_VEHTYPE" speedFactor="0.94" vaporized=""/>
    <tripinfo id="19" depart="38.00" departLane="fromD11_0" departPos="5.10" departSpeed="0.00" departDelay="0.00" arrival="114.00" arrivalLane="toB1_0" arrivalPos="41.49" arrivalSpeed="13.34" duration="76.00" routeLength="173.92" waitingTime="54.00" waitingCount="1" stopTime="0.00" timeLoss="62.37" rerouteNo="0" devices="tripinfo_19" vType="DEFAULT_VEHTYPE" speedFactor="1.05" vaporized=""/>
    <tripinfo id="18" depart="36.00" departLane="fromD1_0" departPos="5.10" departSpeed="0.00" departDelay="0.00" arrival="118.00" arrivalLane="toB1_0" arrivalPos="41.49" arrivalSpeed="14.03" duration="82.00" routeLength="214.86" waitingTime="52.00" waitingCount="1" stopTime="0.00" timeLoss="64.34" rerouteNo="0" devices="tripinfo_18" vType="DEFAULT_VEHTYPE" speedFactor="1.03" vaporized=""/>
    <tripinfo id="36" depart="72.00" departLane="fromD2_0" departPos="5.10" departSpeed="0.00" departDelay="0.00" arrival="119.00" arrivalLane="toA1_0" arrivalPos="19.65" arrivalSpeed="13.27" duration="47.00" routeLength="243.44" waitingTime="16.00" waitingCount="2" stopTime="0.00" timeLoss="28.29" rerouteNo="0" devices="tripinfo_36" vType="DEFAULT_VEHTYPE" speedFactor="1.01" vaporized=""/>
    <tripinfo id="52" depart="104.00" departLane="fromA22_0" departPos="5.10" departSpeed="0.00" departDelay="0.00" arrival="122.00" arrivalLane="toB2_0" arrivalPos="2.39" arrivalSpeed="12.64" duration="18.00" routeLength="77.53" waitingTime="3.00" waitingCount="1" stopTime="0.00" timeLoss="12.67" rerouteNo="0" devices="tripinfo_52" vType="DEFAULT_VEHTYPE" speedFactor="1.15" vaporized=""/>
    <tripinfo id="57" depart="114.00" departLane="fromD2_0" departPos="5.10" departSpeed="0.00" departDelay="0.00" arrival="124.00" arrivalLane="toD11_0" arrivalPos="18.90" arrivalSpeed="13.50" duration="10.00" routeLength="90.73" waitingTime="0.00" waitingCount="0" stopTime="0.00" timeLoss="2.99" rerouteNo="0" devices="tripinfo_57" vType="DEFAULT_VEHTYPE" speedFactor="1.02" vaporized=""/>
    <tripinfo id="37" depart="74.00" departLane="fromB2_0" departPos="2.39" departSpeed="0.00" departDelay="0.00" arrival="139.00" arrivalLane="toA22_0" arrivalPos="19.29" arrivalSpeed="10.49" duration="65.00" routeLength="65.46" waitingTime="53.00" waitingCount="1" stopTime="0.00" timeLoss="59.66" rerouteNo="0" devices="tripinfo_37" vType="DEFAULT_VEHTYPE" speedFactor="0.98" vaporized=""/>
    <tripinfo id="51" depart="102.00" departLane="fromB2_0" departPos="2.39" departSpeed="0.00" departDelay="0.00" arrival="143.00" arrivalLane="toB1_0" arrivalPos="41.49" arrivalSpeed="16.10" duration="41.00" routeLength="104.10" waitingTime="25.00" waitingCount="1" stopTime="0.00" timeLoss="34.23" rerouteNo="0" devices="tripinfo_51" vType="DEFAULT_VEHTYPE" speedFactor="1.18" vaporized=""/>
    <tripinfo id="40" depart="80.00" departLane="fromB1_0" departPos="5.10" departSpeed="0.00" departDelay="0.00" arrival="144.00" arrivalLane="toA1_0" arrivalPos="19.65" arrivalSpeed="11.22" duration="64.00" routeLength="104.72" waitingTime="47.00" waitingCount="1" stopTime="0.00" timeLoss="53.33" rerouteNo="0" devices="tripinfo_40" vType="DEFAULT_VEHTYPE" speedFactor="0.83" vaporized=""/>
    <tripinfo id="60" depart="120.00" departLane="fromB2_0" departPos="2.39" departSpeed="0.00" departDelay="0.00" arrival="145.00" arrivalLane="toB1_0" arrivalPos="41.49" arrivalSpeed="15.50" duration="25.00" routeLength="104.10" waitingTime="10.00" waitingCount="1" stopTime="0.00" timeLoss="17.84" rerouteNo="0" devices="tripinfo_60" vType="DEFAULT_VEHTYPE" speedFactor="1.18" vaporized=""/>
    <tripinfo id="61" depart="122.00" departLane="fromB22_0" departPos="5.10" departSpeed="0.00" departDelay="0.00" arrival="147.00" arrivalLane="toB1_0" arrivalPos="41.49" arrivalSpeed="14.82" duration="25.00" routeLength="88.04" waitingTime="12.00" waitingCount="1" stopTime="0.00" timeLoss="18.54" rerouteNo="0" devices="tripinfo_61" vType="DEFAULT_VEHTYPE" speedFactor="1.10" vaporized=""/>
    <tripinfo id="35" depart="70.00" departLane="fromA1_0" departPos="5.10" departSpeed="0.00" departDelay="0.00" arrival="148.00" arrivalLane="toD2_0" arrivalPos="26.05" arrivalSpeed="13.97" duration="78.00" routeLength="231.39" waitingTime="46.00" waitingCount="2" stopTime="0.00" timeLoss="60.74" rerouteNo="0" devices="tripinfo_35" vType="DEFAULT_VEHTYPE" speedFactor="1.02" vaporized=""/>
    <tripinfo id="53" depart="106.00" departLane="fromA1_0" departPos="5.10" departSpeed="0.00" departDelay="0.00" arrival="150.00" arrivalLane="toA3_0" arrivalPos="33.87" arrivalSpeed="13.70" duration="44.00" routeLength="252.62" waitingTime="15.00" waitingCount="1" stopTime="0.00" timeLoss="25.19" rerouteNo="0" devices="tripinfo_53" vType="DEFAULT_VEHTYPE" speedFactor="1.01" vaporized=""/>
    <tripinfo id="63" depart="126.00" departLane="A2toD_0" departPos="5.10" departSpeed="0.00" departDelay="0.00" arrival="151.00" arrivalLane="toD2_0" arrivalPos="26.05" arrivalSpeed="11.41" duration="25.00" routeLength="75.12" waitingTime="11.00" waitingCount="1" stopTime="0.00" timeLoss="17.57" rerouteNo="0" devices="tripinfo_63" vType="DEFAULT_VEHTYPE" speedFactor="0.90" vaporized=""/>
    <tripinfo id="49" depart="100.00" departLane="toA22_0" departPos="5.10" departSpeed="0.00" departDelay="2.00" arrival="153.00" arrivalLane="toD1_0" arrivalPos="32.53" arrivalSpeed="12.22" duration="53.00" routeLength="167.64" waitingTime="28.00" waitingCount="2" stopTime="0.00" timeLoss="38.91" rerouteNo="0" devices="tripinfo_49" vType="DEFAULT_VEHTYPE" speedFactor="0.93" vaporized=""/>
    <tripinfo id="46" depart="92.00" departLane="fromB22_0" departPos="5.10" departSpeed="0.00" departDelay="0.00" arrival="155.00" arrivalLane="toA3_0" arrivalPos="33.87" arrivalSpeed="12.01" duration="63.00" routeLength="203.96" waitingTime="38.00" waitingCount="1" stopTime="0.00" timeLoss="46.25" rerouteNo="0" devices="tripinfo_46" vType="DEFAULT_VEHTYPE" speedFactor="0.95" vaporized=""/>
    <tripinfo id="73" depart="146.00" departLane="fromB1_0" departPos="5.10" departSpeed="0.00" departDelay="0.00" arrival="157.00" arrivalLane="toB2_0" arrivalPos="2.39" arrivalSpeed="13.34" duration="11.00" routeLength="103.45" waitingTime="0.00" waitingCount="0" stopTime="0.00" timeLoss="3.63" rerouteNo="0" devices="tripinfo_73" vType="DEFAULT_VEHTYPE" speedFactor="1.04" vaporized=""/>
    <tripinfo id="41" depart="83.00" departLane="fromB1_0" departPos="5.10" departSpeed="0.00" departDelay="1.00" arrival="162.00" arrivalLane="toD2_0" arrivalPos="26.05" arrivalSpeed="11.34" duration="79.00" routeLength="219.14" waitingTime="47.00" waitingCount="2" stopTime="0.00" timeLoss="59.48" rerouteNo="0" devices="tripinfo_41" vType="DEFAULT_VEHTYPE" speedFactor="0.87" vaporized=""/>
    <tripinfo id="54" depart="108.00" departLane="fromB1_0" departPos="5.10" departSpeed="0.00" departDelay="0.00" arrival="164.00" arrivalLane="toD2_0" arrivalPos="26.05" arrivalSpeed="14.78" duration="56.00" routeLength="219.14" waitingTime="24.00" waitingCount="2" stopTime="0.00" timeLoss="40.95" rerouteNo="0" devices="tripinfo_54" vType="DEFAULT_VEHTYPE" speedFactor="1.17" vaporized=""/>
    <tripinfo id="78" depart="156.00" departLane="fromA3_0" departPos="5.10" departSpeed="0.00" departDelay="0.00" arrival="187.00" arrivalLane="toB1_0" arrivalPos="41.49" arrivalSpeed="13.94" duration="31.00" routeLength="226.34" waitingTime="6.00" waitingCount="1" stopTime="0.00" timeLoss="14.50" rerouteNo="0" devices="tripinfo_78" vType="DEFAULT_VEHTYPE" speedFactor="1.04" vaporized=""/>
    <tripinfo id="83" depart="166.00" departLane="fromA11_0" departPos="5.10" departSpeed="0.00" departDelay="0.00" arrival="187.00" arrivalLane="toB2_0" arrivalPos="2.39" arrivalSpeed="12.32" duration="21.00" routeLength="81.58" waitingTime="6.00" waitingCount="1" stopTime="0.00" timeLoss="13.51" rerouteNo="0" devices="tripinfo_83" vType="DEFAULT_VEHTYPE" speedFactor="0.90" vaporized=""/>
    <tripinfo id="55" depart="110.00" departLane="fromD2_0" departPos="5.10" departSpeed="0.00" departDelay="0.00" arrival="189.00" arrivalLane="toA1_0" arrivalPos="19.65" arrivalSpeed="13.05" duration="79.00" routeLength="243.44" waitingTime="49.00" waitingCount="1" stopTime="0.00" timeLoss="60.78" rerouteNo="0" devices="tripinfo_55" vType="DEFAULT_VEHTYPE" speedFactor="0.99" vaporized=""/>
    <tripinfo id="80" depart="160.00" departLane="fromA1_0" departPos="5.10" departSpeed="0.00" departDelay="0.00" arrival="191.00" arrivalLane="toB1_0" arrivalPos="41.49" arrivalSpeed="14.15" duration="31.00" routeLength="117.36" waitingTime="8.00" waitingCount="1" stopTime="0.00" timeLoss="22.70" rerouteNo="0" devices="tripinfo_80" vType="DEFAULT_VEHTYPE" speedFactor="1.09" vaporized=""/>
    <tripinfo id="64" depart="128.00" departLane="fromD2_0" departPos="5.10" departSpeed="0.00" departDelay="0.00" arrival="195.00" arrivalLane="toD1_0" arrivalPos="32.53" arrivalSpeed="14.24" duration="67.00" routeLength="131.33" waitingTime="48.00" waitingCount="1" stopTime="0.00" timeLoss="56.96" rerouteNo="0" devices="tripinfo_64" vType="DEFAULT_VEHTYPE" speedFactor="1.03" vaporized=""/>
    <tripinfo id="58" depart="116.00" departLane="fromA3_0" departPos="5.10" departSpeed="0.00" departDelay="0.00" arrival="197.00" arrivalLane="toB2_0" arrivalPos="2.39" arrivalSpeed="12.43" duration="81.00" routeLength="231.99" waitingTime="47.00" waitingCount="3" stopTime="0.00" timeLoss="63.25" rerouteNo="0" devices="tripinfo_58" vType="DEFAULT_VEHTYPE" speedFactor="0.97" vaporized=""/>
    <tripinfo id="85" depart="170.00" departLane="fromD2_0" departPos="5.10" departSpeed="0.00" departDelay="0.00" arrival="205.00" arrivalLane="toB1_0" arrivalPos="41.49" arrivalSpeed="11.86" duration="35.00" routeLength="215.41" waitingTime="6.00" waitingCount="1" stopTime="0.00" timeLoss="15.51" rerouteNo="0" devices="tripinfo_85" vType="DEFAULT_VEHTYPE" speedFactor="0.88" vaporized=""/>
    <tripinfo id="108" depart="216.00" departLane="fromB1_0" departPos="5.10" departSpeed="0.00" departDelay="0.00" arrival="233.00" arrivalLane="toB2_0" arrivalPos="2.39" arrivalSpeed="12.89" duration="17.00" routeLength="103.45" waitingTime="0.00" waitingCount="0" stopTime="0.00" timeLoss="8.38" rerouteNo="0" devices="tripinfo_108" vType="DEFAULT_VEHTYPE" speedFactor="0.97" vaporized=""/>
    <tripinfo id="111" depart="222.00" departLane="fromB1_0" departPos="5.10" departSpeed="0.00" departDelay="0.00" arrival="233.00" arrivalLane="toB22_0" arrivalPos="22.15" arrivalSpeed="14.74" duration="11.00" routeLength="88.24" waitingTime="0.00" waitingCount="0" stopTime="0.00" timeLoss="4.67" rerouteNo="0" devices="tripinfo_111" vType="DEFAULT_VEHTYPE" speedFactor="1.08" vaporized=""/>
    <tripinfo id="81" depart="162.00" departLane="fromA1_0" departPos="5.10" departSpeed="0.00" departDelay="0.00" arrival="238.00" arrivalLane="toD2_0" arrivalPos="26.05" arrivalSpeed="13.18" duration="76.00" routeLength="231.39" waitingTime="45.00" waitingCount="2" stopTime="0.00" timeLoss="58.19" rerouteNo="0" devices="tripinfo_81" vType="DEFAULT_VEHTYPE" speedFactor="1.00" vaporized=""/>
    <tripinfo id="67" depart="134.00" departLane="fromA1_0" departPos="5.10" departSpeed="0.00" departDelay="0.00" arrival="240.00" arrivalLane="toA3_0" arrivalPos="33.87" arrivalSpeed="12.65" duration="106.00" routeLength="252.62" waitingTime="72.00" waitingCount="2" stopTime="0.00" timeLoss="86.48" rerouteNo="0" devices="tripinfo_67" vType="DEFAULT_VEHTYPE" speedFactor="0.96" vaporized=""/>
    <tripinfo id="88" depart="176.00" departLane="fromA1_0" departPos="5.10" departSpeed="0.00" departDelay="0.00" arrival="243.00" arrivalLane="toA3_0" arrivalPos="33.87" arrivalSpeed="11.15" duration="67.00" routeLength="252.62" waitingTime="32.00" waitingCount="1" stopTime="0.00" timeLoss="44.96" rerouteNo="0" devices="tripinfo_88" vType="DEFAULT_VEHTYPE" speedFactor="0.85" vaporized=""/>
    <tripinfo id="116" depart="232.00" departLane="fromB1_0" departPos="5.10" departSpeed="0.00" departDelay="0.00" arrival="243.00" arrivalLane="toB2_0" arrivalPos="2.39" arrivalSpeed="12.61" duration="11.00" routeLength="103.45" waitingTime="0.00" waitingCount="0" stopTime="0.00" timeLoss="2.98" rerouteNo="0" devices="tripinfo_116" vType="DEFAULT_VEHTYPE" speedFactor="0.94" vaporized=""/>
    <tripinfo id="118" depart="236.00" departLane="fromD2_0" departPos="5.10" departSpeed="0.00" departDelay="0.00" arrival="243.00" arrivalLane="fromD22_0" arrivalPos="15.13" arrivalSpeed="12.00" duration="7.00" routeLength="44.57" waitingTime="0.00" waitingCount="0" stopTime="0.00" timeLoss="2.41" rerouteNo="0" devices="tripinfo_118" vType="DEFAULT_VEHTYPE" speedFactor="0.88" vaporized=""/>
    <tripinfo id="94" depart="188.00" departLane="fromA1_0" departPos="5.10" departSpeed="0.00" departDelay="0.00" arrival="244.00" arrivalLane="toA3_0" arrivalPos="33.87" arrivalSpeed="12.86" duration="56.00" routeLength="252.62" waitingTime="26.00" waitingCount="1" stopTime="0.00" timeLoss="37.96" rerouteNo="0" devices="tripinfo_94" vType="DEFAULT_VEHTYPE" speedFactor="1.02" vaporized=""/>
    <tripinfo id="68" depart="136.00" departLane="fromA1_0" departPos="5.10" departSpeed="0.00" departDelay="0.00" arrival="245.00" arrivalLane="toD1_0" arrivalPos="32.53" arrivalSpeed="14.71" duration="109.00" routeLength="251.51" waitingTime="71.00" waitingCount="3" stopTime="0.00" timeLoss="91.00" rerouteNo="0" devices="tripinfo_68" vType="DEFAULT_VEHTYPE" speedFactor="1.09" vaporized=""/>
    <tripinfo id="96" depart="192.00" departLane="fromA11_0" departPos="5.10" departSpeed="0.00" departDelay="0.00" arrival="245.00" arrivalLane="toD2_0" arrivalPos="26.05" arrivalSpeed="12.71" duration="53.00" routeLength="209.83" waitingTime="24.00" waitingCount="1" stopTime="0.00" timeLoss="37.06" rerouteNo="0" devices="tripinfo_96" vType="DEFAULT_VEHTYPE" speedFactor="1.00" vaporized=""/>
    <tripinfo id="100" depart="201.00" departLane="toA22_0" departPos="5.10" departSpeed="0.00" departDelay="1.00" arrival="249.00" arrivalLane="toD2_0" arrivalPos="26.05" arrivalSpeed="12.25" duration="48.00" routeLength="147.52" waitingTime="23.00" waitingCount="1" stopTime="0.00" timeLoss="34.61" rerouteNo="0" devices="tripinfo_100" vType="DEFAULT_VEHTYPE" speedFactor="0.90" vaporized=""/>
    <tripinfo id="106" depart="212.00" departLane="fromB1_0" departPos="5.10" departSpeed="0.00" departDelay="0.00" arrival="253.00" arrivalLane="toA3_0" arrivalPos="33.87" arrivalSpeed="13.56" duration="41.00" routeLength="240.37" waitingTime="8.00" waitingCount="1" stopTime="0.00" timeLoss="23.13" rerouteNo="0" devices="tripinfo_106" vType="DEFAULT_VEHTYPE" speedFactor="1.02" vaporized=""/>
    <tripinfo id="104" depart="208.00" departLane="fromA3_0" departPos="5.10" departSpeed="0.00" departDelay="0.00" arrival="256.00" arrivalLane="toD2_0" arrivalPos="26.05" arrivalSpeed="13.79" duration="48.00" routeLength="127.73" waitingTime="27.00" waitingCount="2" stopTime="0.00" timeLoss="39.33" rerouteNo="0" devices="tripinfo_104" vType="DEFAULT_VEHTYPE" speedFactor="1.14" vaporized=""/>
    <tripinfo id="127" depart="254.00" departLane="toD22_0" departPos="5.10" departSpeed="0.00" departDelay="0.00" arrival="257.00" arrivalLane="toD22_0" arrivalPos="15.13" arrivalSpeed="6.18" duration="3.00" routeLength="10.03" waitingTime="0.00" waitingCount="0" stopTime="0.00" timeLoss="2.19" rerouteNo="0" devices="tripinfo_127" vType="DEFAULT_VEHTYPE" speedFactor="1.06" vaporized=""/>
    <tripinfo id="86" depart="172.00" departLane="fromB1_0" departPos="5.10" departSpeed="0.00" departDelay="0.00" arrival="260.00" arrivalLane="toD1_0" arrivalPos="32.53" arrivalSpeed="11.57" duration="88.00" routeLength="239.26" waitingTime="47.00" waitingCount="2" stopTime="0.00" timeLoss="65.28" rerouteNo="0" devices="tripinfo_86" vType="DEFAULT_VEHTYPE" speedFactor="0.85" vaporized=""/>
    <tripinfo id="124" depart="248.00" departLane="fromB2_0" departPos="2.39" departSpeed="0.00" departDelay="0.00" arrival="262.00" arrivalLane="toA1_0" arrivalPos="19.65" arrivalSpeed="13.71" duration="14.00" routeLength="119.92" waitingTime="0.00" waitingCount="0" stopTime="0.00" timeLoss="4.63" rerouteNo="0" devices="tripinfo_124" vType="DEFAULT_VEHTYPE" speedFactor="1.02" vaporized=""/>
    <tripinfo id="121" depart="242.00" departLane="fromB1_0" departPos="5.10" departSpeed="0.00" departDelay="0.00" arrival="266.00" arrivalLane="toD2_0" arrivalPos="26.05" arrivalSpeed="12.43" duration="24.00" routeLength="219.14" waitingTime="0.00" waitingCount="0" stopTime="0.00" timeLoss="5.23" rerouteNo="0" devices="tripinfo_121" vType="DEFAULT_VEHTYPE" speedFactor="0.91" vaporized=""/>
    <tripinfo id="97" depart="194.00" departLane="fromB1_0" departPos="5.10" departSpeed="0.00" departDelay="0.00" arrival="268.00" arrivalLane="toD1_0" arrivalPos="32.53" arrivalSpeed="13.62" duration="74.00" routeLength="239.26" waitingTime="32.00" waitingCount="3" stopTime="0.00" timeLoss="55.04" rerouteNo="0" devices="tripinfo_97" vType="DEFAULT_VEHTYPE" speedFactor="1.00" vaporized=""/>
    <tripinfo id="131" depart="262.00" departLane="fromA3_0" departPos="5.10" departSpeed="0.00" departDelay="0.00" arrival="269.00" arrivalLane="fromA33_0" arrivalPos="19.45" arrivalSpeed="13.20" duration="7.00" routeLength="56.51" waitingTime="0.00" waitingCount="0" stopTime="0.00" timeLoss="2.56" rerouteNo="0" devices="tripinfo_131" vType="DEFAULT_VEHTYPE" speedFactor="0.96" vaporized=""/>
    <tripinfo id="113" depart="226.00" departLane="fromB1_0" departPos="5.10" departSpeed="0.00" departDelay="0.00" arrival="270.00" arrivalLane="toD1_0" arrivalPos="32.53" arrivalSpeed="13.12" duration="44.00" routeLength="239.26" waitingTime="4.00" waitingCount="1" stopTime="0.00" timeLoss="25.25" rerouteNo="0" devices="tripinfo_113" vType="DEFAULT_VEHTYPE" speedFactor="1.02" vaporized=""/>
    <tripinfo id="122" depart="244.00" departLane="fromA1_0" departPos="5.10" departSpeed="0.00" departDelay="0.00" arrival="276.00" arrivalLane="toB2_0" arrivalPos="2.39" arrivalSpeed="13.83" duration="32.00" routeLength="103.14" waitingTime="16.00" waitingCount="1" stopTime="0.00" timeLoss="24.16" rerouteNo="0" devices="tripinfo_122" vType="DEFAULT_VEHTYPE" speedFactor="1.04" vaporized=""/>
    <tripinfo id="120" depart="240.00" departLane="fromA3_0" departPos="5.10" departSpeed="0.00" departDelay="0.00" arrival="277.00" arrivalLane="toB1_0" arrivalPos="41.49" arrivalSpeed="11.98" duration="37.00" routeLength="226.34" waitingTime="11.00" waitingCount="1" stopTime="0.00" timeLoss="17.95" rerouteNo="0" devices="tripinfo_120" vType="DEFAULT_VEHTYPE" speedFactor="0.91" vaporized=""/>
    <tripinfo id="92" depart="184.00" departLane="fromA3_0" departPos="5.10" departSpeed="0.00" departDelay="0.00" arrival="278.00" arrivalLane="toA1_0" arrivalPos="19.65" arrivalSpeed="15.20" duration="94.00" routeLength="254.37" waitingTime="62.00" waitingCount="2" stopTime="0.00" timeLoss="78.23" rerouteNo="0" devices="tripinfo_92" vType="DEFAULT_VEHTYPE" speedFactor="1.17" vaporized=""/>
    <tripinfo id="123" depart="246.00" departLane="fromA11_0" departPos="5.10" departSpeed="0.00" departDelay="0.00" arrival="278.00" arrivalLane="toA22_0" arrivalPos="19.29" arrivalSpeed="13.61" duration="32.00" routeLength="76.50" waitingTime="17.00" waitingCount="1" stopTime="0.00" timeLoss="26.33" rerouteNo="0" devices="tripinfo_123" vType="DEFAULT_VEHTYPE" speedFactor="1.02" vaporized=""/>
    <tripinfo id="95" depart="190.00" departLane="fromA33_0" departPos="5.10" departSpeed="0.00" departDelay="0.00" arrival="280.00" arrivalLane="toA1_0" arrivalPos="19.65" arrivalSpeed="14.01" duration="90.00" routeLength="212.21" waitingTime="58.00" waitingCount="2" stopTime="0.00" timeLoss="75.76" rerouteNo="0" devices="tripinfo_95" vType="DEFAULT_VEHTYPE" speedFactor="1.10" vaporized=""/>
    <tripinfo id="112" depart="224.00" departLane="fromA1_0" departPos="5.10" departSpeed="0.00" departDelay="0.00" arrival="283.00" arrivalLane="toB1_0" arrivalPos="41.49" arrivalSpeed="14.94" duration="59.00" routeLength="117.36" waitingTime="39.00" waitingCount="2" stopTime="0.00" timeLoss="50.85" rerouteNo="0" devices="tripinfo_112" vType="DEFAULT_VEHTYPE" speedFactor="1.12" vaporized=""/>
    <tripinfo id="125" depart="250.00" departLane="fromA3_0" departPos="5.10" departSpeed="0.00" departDelay="0.00" arrival="284.00" arrivalLane="toB22_0" arrivalPos="22.15" arrivalSpeed="12.49" duration="34.00" routeLength="216.78" waitingTime="5.00" waitingCount="1" stopTime="0.00" timeLoss="16.80" rerouteNo="0" devices="tripinfo_125" vType="DEFAULT_VEHTYPE" speedFactor="0.97" vaporized=""/>
    <tripinfo id="139" depart="278.00" departLane="fromA22_0" departPos="5.10" departSpeed="0.00" departDelay="0.00" arrival="288.00" arrivalLane="toB1_0" arrivalPos="41.49" arrivalSpeed="12.91" duration="10.00" routeLength="71.88" waitingTime="0.00" waitingCount="0" stopTime="0.00" timeLoss="3.54" rerouteNo="0" devices="tripinfo_139" vType="DEFAULT_VEHTYPE" speedFactor="1.00" vaporized=""/>