<?xml version="1.0" encoding="UTF-8"?>

<!-- generated on 2021-10-19 15:10:07 by Eclipse SUMO sumo Version 1.10.0
<configuration xmlns:xsi="http://www.w3.org/2001/XMLSchema-instance" xsi:noNamespaceSchemaLocation="http://sumo.dlr.de/xsd/sumoConfiguration.xsd">

    <input>
        <net-file value="network.net.xml"/>
        <route-files value="vehicle_demands.rou.xml"/>
        <additional-files value="solution_lights.add.xml"/>
    </input>

    <output>
        <tripinfo-output value="solution_tripinfo.xml"/>
    </output>

</configuration>
-->

<tripinfos xmlns:xsi="http://www.w3.org/2001/XMLSchema-instance" xsi:noNamespaceSchemaLocation="http://sumo.dlr.de/xsd/tripinfo_file.xsd">
    <tripinfo id="fA1forward.0" depart="0.00" departLane="fromA1_0" departPos="5.10" departSpeed="0.00" departDelay="0.00" arrival="13.00" arrivalLane="toA2_0" arrivalPos="25.85" arrivalSpeed="14.28" duration="13.00" routeLength="132.55" waitingTime="0.00" waitingCount="0" stopTime="0.00" timeLoss="3.84" rerouteNo="0" devices="tripinfo_fA1forward.0" vType="type2" speedFactor="1.06" vaporized=""/>
    <tripinfo id="fA2forward.0" depart="0.00" departLane="fromA2_0" departPos="4.10" departSpeed="0.00" departDelay="0.00" arrival="15.00" arrivalLane="toA1_0" arrivalPos="19.65" arrivalSpeed="14.20" duration="15.00" routeLength="135.54" waitingTime="0.00" waitingCount="0" stopTime="0.00" timeLoss="5.64" rerouteNo="0" devices="tripinfo_fA2forward.0" vType="type1" speedFactor="1.08" vaporized=""/>
    <tripinfo id="fA1right.0" depart="3.00" departLane="fromA1_0" departPos="5.10" departSpeed="0.00" departDelay="3.00" arrival="16.00" arrivalLane="toB2_0" arrivalPos="2.39" arrivalSpeed="14.02" duration="13.00" routeLength="103.14" waitingTime="0.00" waitingCount="0" stopTime="0.00" timeLoss="4.42" rerouteNo="0" devices="tripinfo_fA1right.0" vType="type2" speedFactor="1.01" vaporized=""/>
    <tripinfo id="fA2left.0" depart="2.00" departLane="fromA2_0" departPos="4.10" departSpeed="0.00" departDelay="2.00" arrival="18.00" arrivalLane="toB2_0" arrivalPos="2.39" arrivalSpeed="13.98" duration="16.00" routeLength="113.16" waitingTime="1.00" waitingCount="1" stopTime="0.00" timeLoss="7.55" rerouteNo="0" devices="tripinfo_fA2left.0" vType="type1" speedFactor="1.03" vaporized=""/>
    <tripinfo id="fA2right.0" depart="4.00" departLane="fromA2_0" departPos="6.10" departSpeed="0.00" departDelay="4.00" arrival="22.00" arrivalLane="toB1_0" arrivalPos="41.49" arrivalSpeed="10.39" duration="18.00" routeLength="105.51" waitingTime="0.00" waitingCount="0" stopTime="0.00" timeLoss="7.62" rerouteNo="0" devices="tripinfo_fA2right.0" vType="type3" speedFactor="0.83" vaporized=""/>
    <tripinfo id="fA2forward.1" depart="9.00" departLane="fromA2_0" departPos="5.10" departSpeed="0.00" departDelay="1.76" arrival="22.00" arrivalLane="toA1_0" arrivalPos="19.65" arrivalSpeed="14.71" duration="13.00" routeLength="134.54" waitingTime="0.00" waitingCount="0" stopTime="0.00" timeLoss="3.78" rerouteNo="0" devices="tripinfo_fA2forward.1" vType="type2" speedFactor="1.12" vaporized=""/>
    <tripinfo id="fA1forward.1" depart="6.00" departLane="fromA1_0" departPos="6.10" departSpeed="0.00" departDelay="1.03" arrival="25.00" arrivalLane="toA2_0" arrivalPos="25.85" arrivalSpeed="13.62" duration="19.00" routeLength="131.55" waitingTime="0.00" waitingCount="0" stopTime="0.00" timeLoss="9.38" rerouteNo="0" devices="tripinfo_fA1forward.1" vType="type3" speedFactor="1.05" vaporized=""/>
    <tripinfo id="fA1forward.2" depart="10.00" departLane="fromA1_0" departPos="6.10" departSpeed="0.00" departDelay="0.07" arrival="28.00" arrivalLane="toA2_0" arrivalPos="25.85" arrivalSpeed="12.62" duration="18.00" routeLength="131.55" waitingTime="0.00" waitingCount="0" stopTime="0.00" timeLoss="7.05" rerouteNo="0" devices="tripinfo_fA1forward.2" vType="type3" speedFactor="0.93" vaporized=""/>
    <tripinfo id="fA2right.1" depart="15.00" departLane="fromA2_0" departPos="4.10" departSpeed="0.00" departDelay="0.77" arrival="30.00" arrivalLane="toB1_0" arrivalPos="41.49" arrivalSpeed="12.32" duration="15.00" routeLength="107.51" waitingTime="0.00" waitingCount="0" stopTime="0.00" timeLoss="5.35" rerouteNo="0" devices="tripinfo_fA2right.1" vType="type1" speedFactor="0.94" vaporized=""/>
    <tripinfo id="fA2forward.2" depart="18.00" departLane="fromA2_0" departPos="5.10" departSpeed="0.00" departDelay="3.51" arrival="32.00" arrivalLane="toA1_0" arrivalPos="19.65" arrivalSpeed="12.16" duration="14.00" routeLength="134.54" waitingTime="0.00" waitingCount="0" stopTime="0.00" timeLoss="3.51" rerouteNo="0" devices="tripinfo_fA2forward.2" vType="type2" speedFactor="0.94" vaporized=""/>
    <tripinfo id="fA1forward.3" depart="15.00" departLane="fromA1_0" departPos="6.10" departSpeed="0.00" departDelay="0.10" arrival="34.00" arrivalLane="toA2_0" arrivalPos="25.85" arrivalSpeed="13.92" duration="19.00" routeLength="131.55" waitingTime="0.00" waitingCount="0" stopTime="0.00" timeLoss="10.34" rerouteNo="0" devices="tripinfo_fA1forward.3" vType="type3" speedFactor="1.16" vaporized=""/>
    <tripinfo id="fA1left.0" depart="1.00" departLane="fromA1_0" departPos="5.10" departSpeed="0.00" departDelay="1.00" arrival="35.00" arrivalLane="toB1_0" arrivalPos="41.49" arrivalSpeed="12.40" duration="34.00" routeLength="117.36" waitingTime="15.00" waitingCount="2" stopTime="0.00" timeLoss="24.11" rerouteNo="0" devices="tripinfo_fA1left.0" vType="type2" speedFactor="0.94" vaporized=""/>
    <tripinfo id="fB1forward.0" depart="0.00" departLane="fromB1_0" departPos="5.10" departSpeed="0.00" departDelay="0.00" arrival="41.00" arrivalLane="toB2_0" arrivalPos="2.39" arrivalSpeed="14.46" duration="41.00" routeLength="103.45" waitingTime="25.00" waitingCount="1" stopTime="0.00" timeLoss="32.94" rerouteNo="0" devices="tripinfo_fB1forward.0" vType="type2" speedFactor="1.05" vaporized=""/>
    <tripinfo id="fB2right.0" depart="3.00" departLane="fromB2_0" departPos="2.39" departSpeed="0.00" departDelay="3.00" arrival="41.00" arrivalLane="toA2_0" arrivalPos="25.85" arrivalSpeed="13.99" duration="38.00" routeLength="99.95" waitingTime="21.00" waitingCount="1" stopTime="0.00" timeLoss="29.66" rerouteNo="0" devices="tripinfo_fB2right.0" vType="type2" speedFactor="1.03" vaporized=""/>
    <tripinfo id="fB1right.0" depart="3.00" departLane="fromB1_0" departPos="4.10" departSpeed="0.00" departDelay="3.00" arrival="42.00" arrivalLane="toA1_0" arrivalPos="19.65" arrivalSpeed="12.21" duration="39.00" routeLength="105.72" waitingTime="20.00" waitingCount="1" stopTime="0.00" timeLoss="29.86" rerouteNo="0" devices="tripinfo_fB1right.0" vType="type1" speedFactor="0.94" vaporized=""/>
    <tripinfo id="fB2forward.0" depart="0.00" departLane="fromB2_0" departPos="2.39" departSpeed="0.00" departDelay="0.00" arrival="42.00" arrivalLane="toB1_0" arrivalPos="41.49" arrivalSpeed="11.18" duration="42.00" routeLength="104.10" waitingTime="23.00" waitingCount="1" stopTime="0.00" timeLoss="32.51" rerouteNo="0" devices="tripinfo_fB2forward.0" vType="type2" speedFactor="0.86" vaporized=""/>
    <tripinfo id="fB1forward.1" depart="8.00" departLane="fromB1_0" departPos="5.10" departSpeed="0.00" departDelay="0.42" arrival="43.00" arrivalLane="toB2_0" arrivalPos="2.39" arrivalSpeed="13.61" duration="35.00" routeLength="103.45" waitingTime="15.00" waitingCount="1" stopTime="0.00" timeLoss="26.86" rerouteNo="0" devices="tripinfo_fB1forward.1" vType="type2" speedFactor="0.99" vaporized=""/>
    <tripinfo id="fB1right.1" depart="29.00" departLane="fromB1_0" departPos="5.10" departSpeed="0.00" departDelay="0.20" arrival="43.00" arrivalLane="toA1_0" arrivalPos="19.65" arrivalSpeed="15.10" duration="14.00" routeLength="104.72" waitingTime="0.00" waitingCount="0" stopTime="0.00" timeLoss="6.89" rerouteNo="0" devices="tripinfo_fB1right.1" vType="type2" speedFactor="1.13" vaporized=""/>
    <tripinfo id="fB2forward.1" depart="11.00" departLane="fromB2_0" departPos="2.39" departSpeed="0.00" departDelay="0.09" arrival="44.00" arrivalLane="toB1_0" arrivalPos="41.49" arrivalSpeed="11.76" duration="33.00" routeLength="104.10" waitingTime="14.00" waitingCount="1" stopTime="0.00" timeLoss="23.97" rerouteNo="0" devices="tripinfo_fB2forward.1" vType="type1" speedFactor="0.88" vaporized=""/>
    <tripinfo id="fB1forward.2" depart="16.00" departLane="fromB1_0" departPos="5.10" departSpeed="0.00" departDelay="0.84" arrival="45.00" arrivalLane="toB2_0" arrivalPos="2.39" arrivalSpeed="14.06" duration="29.00" routeLength="103.45" waitingTime="12.00" waitingCount="1" stopTime="0.00" timeLoss="20.79" rerouteNo="0" devices="tripinfo_fB1forward.2" vType="type2" speedFactor="1.02" vaporized=""/>
    <tripinfo id="fB2forward.2" depart="22.00" departLane="fromB2_0" departPos="2.39" departSpeed="0.00" departDelay="0.18" arrival="46.00" arrivalLane="toB1_0" arrivalPos="41.49" arrivalSpeed="11.29" duration="24.00" routeLength="104.10" waitingTime="6.00" waitingCount="1" stopTime="0.00" timeLoss="14.39" rerouteNo="0" devices="tripinfo_fB2forward.2" vType="type2" speedFactor="0.83" vaporized=""/>
    <tripinfo id="fB1forward.3" depart="23.00" departLane="fromB1_0" departPos="4.10" departSpeed="0.00" departDelay="0.26" arrival="49.00" arrivalLane="toB2_0" arrivalPos="2.39" arrivalSpeed="12.11" duration="26.00" routeLength="104.45" waitingTime="6.00" waitingCount="1" stopTime="0.00" timeLoss="16.57" rerouteNo="0" devices="tripinfo_fB1forward.3" vType="type1" speedFactor="0.87" vaporized=""/>
    <tripinfo id="fB1forward.4" depart="32.00" departLane="fromB1_0" departPos="5.10" departSpeed="0.00" departDelay="1.68" arrival="50.00" arrivalLane="toB2_0" arrivalPos="2.39" arrivalSpeed="14.63" duration="18.00" routeLength="103.45" waitingTime="0.00" waitingCount="0" stopTime="0.00" timeLoss="11.27" rerouteNo="0" devices="tripinfo_fB1forward.4" vType="type2" speedFactor="1.15" vaporized=""/>
    <tripinfo id="fB2forward.3" depart="33.00" departLane="fromB2_0" departPos="2.39" departSpeed="0.00" departDelay="0.27" arrival="50.00" arrivalLane="toB1_0" arrivalPos="41.49" arrivalSpeed="12.44" duration="17.00" routeLength="104.10" waitingTime="0.00" waitingCount="0" stopTime="0.00" timeLoss="9.43" rerouteNo="0" devices="tripinfo_fB2forward.3" vType="type3" speedFactor="1.01" vaporized=""/>
    <tripinfo id="fB1forward.5" depart="39.00" departLane="fromB1_0" departPos="5.10" departSpeed="0.00" departDelay="1.10" arrival="52.00" arrivalLane="toB2_0" arrivalPos="2.39" arrivalSpeed="15.85" duration="13.00" routeLength="103.45" waitingTime="0.00" waitingCount="0" stopTime="0.00" timeLoss="6.14" rerouteNo="0" devices="tripinfo_fB1forward.5" vType="type2" speedFactor="1.18" vaporized=""/>
    <tripinfo id="fB2forward.4" depart="44.00" departLane="fromB2_0" departPos="2.39" departSpeed="0.00" departDelay="0.36" arrival="55.00" arrivalLane="toB1_0" arrivalPos="41.49" arrivalSpeed="13.98" duration="11.00" routeLength="104.10" waitingTime="0.00" waitingCount="0" stopTime="0.00" timeLoss="4.00" rerouteNo="0" devices="tripinfo_fB2forward.4" vType="type2" speedFactor="1.09" vaporized=""/>
    <tripinfo id="fB2left.0" depart="1.00" departLane="fromB2_0" departPos="2.39" departSpeed="0.00" departDelay="1.00" arrival="57.00" arrivalLane="toA1_0" arrivalPos="19.65" arrivalSpeed="15.06" duration="56.00" routeLength="119.92" waitingTime="34.00" waitingCount="3" stopTime="0.00" timeLoss="47.18" rerouteNo="0" devices="tripinfo_fB2left.0" vType="type2" speedFactor="1.09" vaporized=""/>
    <tripinfo id="fB1left.0" depart="1.00" departLane="fromB1_0" departPos="5.10" departSpeed="0.00" departDelay="1.00" arrival="61.00" arrivalLane="toA2_0" arrivalPos="25.85" arrivalSpeed="11.06" duration="60.00" routeLength="120.30" waitingTime="37.00" waitingCount="3" stopTime="0.00" timeLoss="49.58" rerouteNo="0" devices="tripinfo_fB1left.0" vType="type2" speedFactor="0.89" vaporized=""/>
    <tripinfo id="fA1right.1" depart="34.00" departLane="fromA1_0" departPos="5.10" departSpeed="0.00" departDelay="0.04" arrival="66.00" arrivalLane="toB2_0" arrivalPos="2.39" arrivalSpeed="13.54" duration="32.00" routeLength="103.14" waitingTime="15.00" waitingCount="1" stopTime="0.00" timeLoss="25.07" rerouteNo="0" devices="tripinfo_fA1right.1" vType="type2" speedFactor="1.17" vaporized=""/>
    <tripinfo id="fA2right.2" depart="29.00" departLane="fromA2_0" departPos="5.10" departSpeed="0.00" departDelay="0.54" arrival="68.00" arrivalLane="toB1_0" arrivalPos="41.49" arrivalSpeed="12.95" duration="39.00" routeLength="106.51" waitingTime="20.00" waitingCount="1" stopTime="0.00" timeLoss="29.71" rerouteNo="0" devices="tripinfo_fA2right.2" vType="type2" speedFactor="0.95" vaporized=""/>
    <tripinfo id="fB1left.1" depart="36.00" departLane="fromB1_0" departPos="6.10" departSpeed="0.00" departDelay="0.00" arrival="68.00" arrivalLane="toA2_0" arrivalPos="25.85" arrivalSpeed="10.96" duration="32.00" routeLength="119.30" waitingTime="4.00" waitingCount="2" stopTime="0.00" timeLoss="22.30" rerouteNo="0" devices="tripinfo_fB1left.1" vType="type3" speedFactor="1.02" vaporized=""/>
    <tripinfo id="fA1forward.4" depart="20.00" departLane="fromA1_0" departPos="5.10" departSpeed="0.00" departDelay="0.14" arrival="69.00" arrivalLane="toA2_0" arrivalPos="25.85" arrivalSpeed="12.24" duration="49.00" routeLength="132.55" waitingTime="28.00" waitingCount="1" stopTime="0.00" timeLoss="39.53" rerouteNo="0" devices="tripinfo_fA1forward.4" vType="type2" speedFactor="1.01" vaporized=""/>
    <tripinfo id="fA2forward.3" depart="22.00" departLane="fromA2_0" departPos="4.10" departSpeed="0.00" departDelay="0.27" arrival="70.00" arrivalLane="toA1_0" arrivalPos="19.65" arrivalSpeed="11.73" duration="48.00" routeLength="135.54" waitingTime="27.00" waitingCount="1" stopTime="0.00" timeLoss="36.88" rerouteNo="0" devices="tripinfo_fA2forward.3" vType="type1" speedFactor="0.89" vaporized=""/>
    <tripinfo id="fA2right.3" depart="43.00" departLane="fromA2_0" departPos="5.10" departSpeed="0.00" departDelay="0.31" arrival="70.00" arrivalLane="toB1_0" arrivalPos="41.49" arrivalSpeed="13.83" duration="27.00" routeLength="106.51" waitingTime="9.00" waitingCount="1" stopTime="0.00" timeLoss="18.16" rerouteNo="0" devices="tripinfo_fA2right.3" vType="type2" speedFactor="1.03" vaporized=""/>
    <tripinfo id="fA1forward.5" depart="25.00" departLane="fromA1_0" departPos="5.10" departSpeed="0.00" departDelay="0.17" arrival="71.00" arrivalLane="toA2_0" arrivalPos="25.85" arrivalSpeed="12.54" duration="46.00" routeLength="132.55" waitingTime="27.00" waitingCount="1" stopTime="0.00" timeLoss="35.34" rerouteNo="0" devices="tripinfo_fA1forward.5" vType="type2" speedFactor="0.92" vaporized=""/>
    <tripinfo id="fA2right.4" depart="57.00" departLane="fromA2_0" departPos="5.10" departSpeed="0.00" departDelay="0.08" arrival="71.00" arrivalLane="toB1_0" arrivalPos="41.49" arrivalSpeed="14.03" duration="14.00" routeLength="106.51" waitingTime="0.00" waitingCount="0" stopTime="0.00" timeLoss="6.74" rerouteNo="0" devices="tripinfo_fA2right.4" vType="type2" speedFactor="1.17" vaporized=""/>
    <tripinfo id="fA2forward.4" depart="32.00" departLane="fromA2_0" departPos="4.10" departSpeed="0.00" departDelay="3.03" arrival="72.00" arrivalLane="toA1_0" arrivalPos="19.65" arrivalSpeed="12.82" duration="40.00" routeLength="135.54" waitingTime="19.00" waitingCount="1" stopTime="0.00" timeLoss="28.96" rerouteNo="0" devices="tripinfo_fA2forward.4" vType="type1" speedFactor="0.93" vaporized=""/>
    <tripinfo id="fA1forward.6" depart="30.00" departLane="fromA1_0" departPos="4.10" departSpeed="0.00" departDelay="0.20" arrival="73.00" arrivalLane="toA2_0" arrivalPos="25.85" arrivalSpeed="15.54" duration="43.00" routeLength="133.55" waitingTime="23.00" waitingCount="1" stopTime="0.00" timeLoss="34.27" rerouteNo="0" devices="tripinfo_fA1forward.6" vType="type1" speedFactor="1.18" vaporized=""/>
    <tripinfo id="fA2forward.5" depart="37.00" departLane="fromA2_0" departPos="5.10" departSpeed="0.00" departDelay="0.78" arrival="74.00" arrivalLane="toA1_0" arrivalPos="19.65" arrivalSpeed="12.84" duration="37.00" routeLength="134.54" waitingTime="15.00" waitingCount="1" stopTime="0.00" timeLoss="26.18" rerouteNo="0" devices="tripinfo_fA2forward.5" vType="type2" speedFactor="0.97" vaporized=""/>
    <tripinfo id="fA2forward.6" depart="46.00" departLane="fromA2_0" departPos="5.10" departSpeed="0.00" departDelay="2.54" arrival="76.00" arrivalLane="toA1_0" arrivalPos="19.65" arrivalSpeed="12.57" duration="30.00" routeLength="134.54" waitingTime="8.00" waitingCount="1" stopTime="0.00" timeLoss="19.01" rerouteNo="0" devices="tripinfo_fA2forward.6" vType="type2" speedFactor="0.96" vaporized=""/>
    <tripinfo id="fA2forward.7" depart="51.00" departLane="fromA2_0" departPos="5.10" departSpeed="0.00" departDelay="0.30" arrival="77.00" arrivalLane="toA1_0" arrivalPos="19.65" arrivalSpeed="12.75" duration="26.00" routeLength="134.54" waitingTime="5.00" waitingCount="1" stopTime="0.00" timeLoss="16.07" rerouteNo="0" devices="tripinfo_fA2forward.7" vType="type2" speedFactor="1.00" vaporized=""/>
    <tripinfo id="fA1forward.7" depart="37.00" departLane="fromA1_0" departPos="4.10" departSpeed="0.00" departDelay="2.24" arrival="78.00" arrivalLane="toA2_0" arrivalPos="25.85" arrivalSpeed="13.08" duration="41.00" routeLength="133.55" waitingTime="19.00" waitingCount="1" stopTime="0.00" timeLoss="30.55" rerouteNo="0" devices="tripinfo_fA1forward.7" vType="type1" speedFactor="0.99" vaporized=""/>
    <tripinfo id="fA2forward.8" depart="60.00" departLane="fromA2_0" departPos="5.10" departSpeed="0.00" departDelay="2.06" arrival="79.00" arrivalLane="toA1_0" arrivalPos="19.65" arrivalSpeed="14.80" duration="19.00" routeLength="134.54" waitingTime="0.00" waitingCount="0" stopTime="0.00" timeLoss="9.52" rerouteNo="0" devices="tripinfo_fA2forward.8" vType="type2" speedFactor="1.10" vaporized=""/>
    <tripinfo id="fA2forward.9" depart="66.00" departLane="fromA2_0" departPos="5.10" departSpeed="0.00" departDelay="0.81" arrival="81.00" arrivalLane="toA1_0" arrivalPos="19.65" arrivalSpeed="13.83" duration="15.00" routeLength="134.54" waitingTime="0.00" waitingCount="0" stopTime="0.00" timeLoss="4.67" rerouteNo="0" devices="tripinfo_fA2forward.9" vType="type2" speedFactor="1.02" vaporized=""/>
    <tripinfo id="fA1forward.11" depart="55.00" departLane="fromA1_0" departPos="6.10" departSpeed="0.00" departDelay="0.37" arrival="85.00" arrivalLane="toA2_0" arrivalPos="25.85" arrivalSpeed="11.43" duration="30.00" routeLength="131.55" waitingTime="1.00" waitingCount="1" stopTime="0.00" timeLoss="18.42" rerouteNo="0" devices="tripinfo_fA1forward.11" vType="type3" speedFactor="0.85" vaporized=""/>
    <tripinfo id="fA1forward.12" depart="60.00" departLane="fromA1_0" departPos="4.10" departSpeed="0.00" departDelay="0.41" arrival="87.00" arrivalLane="toA2_0" arrivalPos="25.85" arrivalSpeed="12.69" duration="27.00" routeLength="133.55" waitingTime="1.00" waitingCount="1" stopTime="0.00" timeLoss="16.76" rerouteNo="0" devices="tripinfo_fA1forward.12" vType="type1" speedFactor="1.00" vaporized=""/>
    <tripinfo id="fA1right.2" depart="73.00" departLane="fromA1_0" departPos="4.10" departSpeed="0.00" departDelay="5.08" arrival="87.00" arrivalLane="toB2_0" arrivalPos="2.39" arrivalSpeed="14.78" duration="14.00" routeLength="104.14" waitingTime="0.00" waitingCount="0" stopTime="0.00" timeLoss="5.77" rerouteNo="0" devices="tripinfo_fA1right.2" vType="type1" speedFactor="1.08" vaporized=""/>
    <tripinfo id="fA2right.5" depart="72.00" departLane="fromA2_0" departPos="4.10" departSpeed="0.00" departDelay="0.85" arrival="87.00" arrivalLane="toB1_0" arrivalPos="41.49" arrivalSpeed="13.22" duration="15.00" routeLength="107.51" waitingTime="0.00" waitingCount="0" stopTime="0.00" timeLoss="5.57" rerouteNo="0" devices="tripinfo_fA2right.5" vType="type1" speedFactor="0.99" vaporized=""/>
    <tripinfo id="fA1forward.8" depart="40.00" departLane="fromA1_0" departPos="5.10" departSpeed="0.00" departDelay="0.27" arrival="88.00" arrivalLane="toA2_0" arrivalPos="25.85" arrivalSpeed="14.26" duration="48.00" routeLength="132.55" waitingTime="21.00" waitingCount="2" stopTime="0.00" timeLoss="39.18" rerouteNo="0" devices="tripinfo_fA1forward.8" vType="type2" speedFactor="1.10" vaporized=""/>
    <tripinfo id="fA1forward.9" depart="45.00" departLane="fromA1_0" departPos="5.10" departSpeed="0.00" departDelay="0.31" arrival="90.00" arrivalLane="toA2_0" arrivalPos="25.85" arrivalSpeed="13.66" duration="45.00" routeLength="132.55" waitingTime="17.00" waitingCount="2" stopTime="0.00" timeLoss="35.45" rerouteNo="0" devices="tripinfo_fA1forward.9" vType="type2" speedFactor="1.04" vaporized=""/>
    <tripinfo id="fA1forward.10" depart="50.00" departLane="fromA1_0" departPos="4.10" departSpeed="0.00" departDelay="0.34" arrival="92.00" arrivalLane="toA2_0" arrivalPos="25.85" arrivalSpeed="14.40" duration="42.00" routeLength="133.55" waitingTime="14.00" waitingCount="2" stopTime="0.00" timeLoss="32.60" rerouteNo="0" devices="tripinfo_fA1forward.10" vType="type1" speedFactor="1.09" vaporized=""/>
    <tripinfo id="fA1forward.13" depart="72.00" departLane="fromA1_0" departPos="5.10" departSpeed="0.00" departDelay="7.44" arrival="93.00" arrivalLane="toA2_0" arrivalPos="25.85" arrivalSpeed="14.96" duration="21.00" routeLength="132.55" waitingTime="0.00" waitingCount="0" stopTime="0.00" timeLoss="12.59" rerouteNo="0" devices="tripinfo_fA1forward.13" vType="type2" speedFactor="1.14" vaporized=""/>
    <tripinfo id="fA2forward.10" depart="75.00" departLane="fromA2_0" departPos="6.10" departSpeed="0.00" departDelay="2.57" arrival="93.00" arrivalLane="toA1_0" arrivalPos="19.65" arrivalSpeed="12.00" duration="18.00" routeLength="133.54" waitingTime="0.00" waitingCount="0" stopTime="0.00" timeLoss="7.10" rerouteNo="0" devices="tripinfo_fA2forward.10" vType="type3" speedFactor="0.88" vaporized=""/>
    <tripinfo id="fA2forward.11" depart="80.00" departLane="fromA2_0" departPos="5.10" departSpeed="0.00" departDelay="0.33" arrival="95.00" arrivalLane="toA1_0" arrivalPos="19.65" arrivalSpeed="14.03" duration="15.00" routeLength="134.54" waitingTime="0.00" waitingCount="0" stopTime="0.00" timeLoss="5.21" rerouteNo="0" devices="tripinfo_fA2forward.11" vType="type2" speedFactor="1.02" vaporized=""/>
    <tripinfo id="fA1left.1" depart="21.00" departLane="fromA1_0" departPos="4.10" departSpeed="0.00" departDelay="0.43" arrival="99.00" arrivalLane="toB1_0" arrivalPos="41.49" arrivalSpeed="13.12" duration="78.00" routeLength="118.36" waitingTime="52.00" waitingCount="3" stopTime="0.00" timeLoss="67.94" rerouteNo="0" devices="tripinfo_fA1left.1" vType="type1" speedFactor="0.98" vaporized=""/>
    <tripinfo id="fA1left.2" depart="42.00" departLane="fromA1_0" departPos="5.10" departSpeed="0.00" departDelay="0.86" arrival="100.00" arrivalLane="toB1_0" arrivalPos="41.49" arrivalSpeed="12.02" duration="58.00" routeLength="117.36" waitingTime="34.00" waitingCount="2" stopTime="0.00" timeLoss="47.97" rerouteNo="0" devices="tripinfo_fA1left.2" vType="type2" speedFactor="0.90" vaporized=""/>
    <tripinfo id="fB1right.2" depart="58.00" departLane="fromB1_0" departPos="5.10" departSpeed="0.00" departDelay="0.40" arrival="101.00" arrivalLane="toA1_0" arrivalPos="19.65" arrivalSpeed="13.20" duration="43.00" routeLength="104.72" waitingTime="27.00" waitingCount="1" stopTime="0.00" timeLoss="34.34" rerouteNo="0" devices="tripinfo_fB1right.2" vType="type2" speedFactor="1.02" vaporized=""/>
    <tripinfo id="fB1forward.6" depart="46.00" departLane="fromB1_0" departPos="6.10" departSpeed="0.00" departDelay="0.53" arrival="105.00" arrivalLane="toB2_0" arrivalPos="2.39" arrivalSpeed="9.97" duration="59.00" routeLength="102.45" waitingTime="35.00" waitingCount="1" stopTime="0.00" timeLoss="51.83" rerouteNo="0" devices="tripinfo_fB1forward.6" vType="type3" speedFactor="1.04" vaporized=""/>
    <tripinfo id="fB2forward.5" depart="55.00" departLane="fromB2_0" departPos="2.39" departSpeed="0.00" departDelay="0.45" arrival="105.00" arrivalLane="toB1_0" arrivalPos="41.49" arrivalSpeed="11.79" duration="50.00" routeLength="104.10" waitingTime="31.00" waitingCount="2" stopTime="0.00" timeLoss="41.19" rerouteNo="0" devices="tripinfo_fB2forward.5" vType="type1" speedFactor="0.85" vaporized=""/>
    <tripinfo id="fB1forward.7" depart="54.00" departLane="fromB1_0" departPos="6.10" departSpeed="0.00" departDelay="0.95" arrival="108.00" arrivalLane="toB2_0" arrivalPos="2.39" arrivalSpeed="10.59" duration="54.00" routeLength="102.45" waitingTime="29.00" waitingCount="1" stopTime="0.00" timeLoss="45.16" rerouteNo="0" devices="tripinfo_fB1forward.7" vType="type3" speedFactor="0.88" vaporized=""/>
    <tripinfo id="fB1forward.8" depart="61.00" departLane="fromB1_0" departPos="4.10" departSpeed="0.00" departDelay="0.37" arrival="110.00" arrivalLane="toB2_0" arrivalPos="2.39" arrivalSpeed="12.78" duration="49.00" routeLength="104.45" waitingTime="27.00" waitingCount="1" stopTime="0.00" timeLoss="40.73" rerouteNo="0" devices="tripinfo_fB1forward.8" vType="type1" speedFactor="1.00" vaporized=""/>
    <tripinfo id="fB2forward.6" depart="66.00" departLane="fromB2_0" departPos="2.39" departSpeed="0.00" departDelay="0.55" arrival="110.00" arrivalLane="toB1_0" arrivalPos="41.49" arrivalSpeed="10.87" duration="44.00" routeLength="104.10" waitingTime="20.00" waitingCount="2" stopTime="0.00" timeLoss="35.75" rerouteNo="0" devices="tripinfo_fB2forward.6" vType="type3" speedFactor="0.97" vaporized=""/>
    <tripinfo id="fB1forward.10" depart="76.00" departLane="fromB1_0" departPos="5.10" departSpeed="0.00" departDelay="0.21" arrival="111.00" arrivalLane="toB2_0" arrivalPos="2.39" arrivalSpeed="12.45" duration="35.00" routeLength="103.45" waitingTime="16.00" waitingCount="2" stopTime="0.00" timeLoss="26.75" rerouteNo="0" devices="tripinfo_fB1forward.10" vType="type2" speedFactor="0.91" vaporized=""/>
    <tripinfo id="fB2forward.7" depart="77.00" departLane="fromB2_0" departPos="2.39" departSpeed="0.00" departDelay="0.64" arrival="112.00" arrivalLane="toB1_0" arrivalPos="41.49" arrivalSpeed="11.20" duration="35.00" routeLength="104.10" waitingTime="10.00" waitingCount="2" stopTime="0.00" timeLoss="27.36" rerouteNo="0" devices="tripinfo_fB2forward.7" vType="type3" speedFactor="1.04" vaporized=""/>
    <tripinfo id="fB2forward.8" depart="88.00" departLane="fromB2_0" departPos="2.39" departSpeed="0.00" departDelay="0.73" arrival="114.00" arrivalLane="toB1_0" arrivalPos="41.49" arrivalSpeed="12.78" duration="26.00" routeLength="104.10" waitingTime="4.00" waitingCount="2" stopTime="0.00" timeLoss="17.72" rerouteNo="0" devices="tripinfo_fB2forward.8" vType="type2" speedFactor="0.98" vaporized=""/>
    <tripinfo id="fB1forward.9" depart="69.00" departLane="fromB1_0" departPos="6.10" departSpeed="0.00" departDelay="0.79" arrival="115.00" arrivalLane="toB2_0" arrivalPos="2.39" arrivalSpeed="10.77" duration="46.00" routeLength="102.45" waitingTime="21.00" waitingCount="2" stopTime="0.00" timeLoss="39.36" rerouteNo="0" devices="tripinfo_fB1forward.9" vType="type3" speedFactor="1.12" vaporized=""/>
    <tripinfo id="fB2forward.9" depart="99.00" departLane="fromB2_0" departPos="2.39" departSpeed="0.00" departDelay="0.82" arrival="116.00" arrivalLane="toB1_0" arrivalPos="41.49" arrivalSpeed="12.20" duration="17.00" routeLength="104.10" waitingTime="0.00" waitingCount="0" stopTime="0.00" timeLoss="8.90" rerouteNo="0" devices="tripinfo_fB2forward.9" vType="type3" speedFactor="1.02" vaporized=""/>
    <tripinfo id="fB1forward.11" depart="84.00" departLane="fromB1_0" departPos="5.10" departSpeed="0.00" departDelay="0.63" arrival="117.00" arrivalLane="toB2_0" arrivalPos="2.39" arrivalSpeed="11.81" duration="33.00" routeLength="103.45" waitingTime="13.00" waitingCount="2" stopTime="0.00" timeLoss="24.82" rerouteNo="0" devices="tripinfo_fB1forward.11" vType="type2" speedFactor="0.94" vaporized=""/>
    <tripinfo id="fB1right.3" depart="87.00" departLane="fromB1_0" departPos="5.10" departSpeed="0.00" departDelay="0.60" arrival="117.00" arrivalLane="toA1_0" arrivalPos="19.65" arrivalSpeed="12.65" duration="30.00" routeLength="104.72" waitingTime="11.00" waitingCount="2" stopTime="0.00" timeLoss="21.85" rerouteNo="0" devices="tripinfo_fB1right.3" vType="type2" speedFactor="0.98" vaporized=""/>
    <tripinfo id="fB1left.2" depart="72.00" departLane="fromB1_0" departPos="5.10" departSpeed="0.00" departDelay="0.00" arrival="119.00" arrivalLane="toA2_0" arrivalPos="25.85" arrivalSpeed="11.87" duration="47.00" routeLength="120.30" waitingTime="23.00" waitingCount="3" stopTime="0.00" timeLoss="37.16" rerouteNo="0" devices="tripinfo_fB1left.2" vType="type2" speedFactor="0.94" vaporized=""/>
    <tripinfo id="fB2left.1" depart="52.00" departLane="fromB2_0" departPos="2.39" departSpeed="0.00" departDelay="0.57" arrival="123.00" arrivalLane="toA1_0" arrivalPos="19.65" arrivalSpeed="11.68" duration="71.00" routeLength="119.92" waitingTime="49.00" waitingCount="2" stopTime="0.00" timeLoss="60.16" rerouteNo="0" devices="tripinfo_fB2left.1" vType="type2" speedFactor="0.90" vaporized=""/>
    <tripinfo id="fB2left.2" depart="103.00" departLane="fromB2_0" departPos="2.39" departSpeed="0.00" departDelay="0.14" arrival="124.00" arrivalLane="toA1_0" arrivalPos="19.65" arrivalSpeed="13.79" duration="21.00" routeLength="119.92" waitingTime="1.00" waitingCount="1" stopTime="0.00" timeLoss="12.05" rerouteNo="0" devices="tripinfo_fB2left.2" vType="type2" speedFactor="1.02" vaporized=""/>
    <tripinfo id="fA2right.6" depart="86.00" departLane="fromA2_0" departPos="5.10" departSpeed="0.00" departDelay="0.63" arrival="127.00" arrivalLane="toB1_0" arrivalPos="41.49" arrivalSpeed="12.45" duration="41.00" routeLength="106.51" waitingTime="23.00" waitingCount="1" stopTime="0.00" timeLoss="31.97" rerouteNo="0" devices="tripinfo_fA2right.6" vType="type2" speedFactor="0.96" vaporized=""/>