<?xml version="1.0" encoding="UTF-8"?>

<!-- generated on 2021-10-20 14:01:39 by Eclipse SUMO sumo Version 1.10.0
<configuration xmlns:xsi="http://www.w3.org/2001/XMLSchema-instance" xsi:noNamespaceSchemaLocation="http://sumo.dlr.de/xsd/sumoConfiguration.xsd">

    <input>
        <net-file value="network.net.xml"/>
        <route-files value="vehicle_demands.rou.xml"/>
        <additional-files value="time_gap_solution_lights.add.xml"/>
    </input>

    <output>
        <tripinfo-output value="time_gap_tripinfo.xml"/>
    </output>

</configuration>
-->

<tripinfos xmlns:xsi="http://www.w3.org/2001/XMLSchema-instance" xsi:noNamespaceSchemaLocation="http://sumo.dlr.de/xsd/tripinfo_file.xsd">
    <tripinfo id="fA1forward.0" depart="0.00" departLane="fromA1_0" departPos="5.10" departSpeed="0.00" departDelay="0.00" arrival="13.00" arrivalLane="toA2_0" arrivalPos="25.85" arrivalSpeed="14.28" duration="13.00" routeLength="132.55" waitingTime="0.00" waitingCount="0" stopTime="0.00" timeLoss="3.84" rerouteNo="0" devices="tripinfo_fA1forward.0" vType="type2" speedFactor="1.06" vaporized=""/>
    <tripinfo id="fA2forward.0" depart="0.00" departLane="fromA2_0" departPos="4.10" departSpeed="0.00" departDelay="0.00" arrival="15.00" arrivalLane="toA1_0" arrivalPos="19.65" arrivalSpeed="14.20" duration="15.00" routeLength="135.54" waitingTime="0.00" waitingCount="0" stopTime="0.00" timeLoss="5.64" rerouteNo="0" devices="tripinfo_fA2forward.0" vType="type1" speedFactor="1.08" vaporized=""/>
    <tripinfo id="fA1right.0" depart="3.00" departLane="fromA1_0" departPos="5.10" departSpeed="0.00" departDelay="3.00" arrival="16.00" arrivalLane="toB2_0" arrivalPos="2.39" arrivalSpeed="14.02" duration="13.00" routeLength="103.14" waitingTime="0.00" waitingCount="0" stopTime="0.00" timeLoss="4.42" rerouteNo="0" devices="tripinfo_fA1right.0" vType="type2" speedFactor="1.01" vaporized=""/>
    <tripinfo id="fA2left.0" depart="2.00" departLane="fromA2_0" departPos="4.10" departSpeed="0.00" departDelay="2.00" arrival="18.00" arrivalLane="toB2_0" arrivalPos="2.39" arrivalSpeed="13.98" duration="16.00" routeLength="113.16" waitingTime="1.00" waitingCount="1" stopTime="0.00" timeLoss="7.55" rerouteNo="0" devices="tripinfo_fA2left.0" vType="type1" speedFactor="1.03" vaporized=""/>
    <tripinfo id="fA2right.0" depart="4.00" departLane="fromA2_0" departPos="6.10" departSpeed="0.00" departDelay="4.00" arrival="22.00" arrivalLane="toB1_0" arrivalPos="41.49" arrivalSpeed="10.39" duration="18.00" routeLength="105.51" waitingTime="0.00" waitingCount="0" stopTime="0.00" timeLoss="7.62" rerouteNo="0" devices="tripinfo_fA2right.0" vType="type3" speedFactor="0.83" vaporized=""/>
    <tripinfo id="fA2forward.1" depart="9.00" departLane="fromA2_0" departPos="5.10" departSpeed="0.00" departDelay="1.76" arrival="22.00" arrivalLane="toA1_0" arrivalPos="19.65" arrivalSpeed="14.71" duration="13.00" routeLength="134.54" waitingTime="0.00" waitingCount="0" stopTime="0.00" timeLoss="3.78" rerouteNo="0" devices="tripinfo_fA2forward.1" vType="type2" speedFactor="1.12" vaporized=""/>
    <tripinfo id="fA1forward.1" depart="6.00" departLane="fromA1_0" departPos="6.10" departSpeed="0.00" departDelay="1.03" arrival="25.00" arrivalLane="toA2_0" arrivalPos="25.85" arrivalSpeed="13.62" duration="19.00" routeLength="131.55" waitingTime="0.00" waitingCount="0" stopTime="0.00" timeLoss="9.38" rerouteNo="0" devices="tripinfo_fA1forward.1" vType="type3" speedFactor="1.05" vaporized=""/>
    <tripinfo id="fA1forward.2" depart="10.00" departLane="fromA1_0" departPos="6.10" departSpeed="0.00" departDelay="0.07" arrival="28.00" arrivalLane="toA2_0" arrivalPos="25.85" arrivalSpeed="12.62" duration="18.00" routeLength="131.55" waitingTime="0.00" waitingCount="0" stopTime="0.00" timeLoss="7.05" rerouteNo="0" devices="tripinfo_fA1forward.2" vType="type3" speedFactor="0.93" vaporized=""/>
    <tripinfo id="fA2right.1" depart="15.00" departLane="fromA2_0" departPos="4.10" departSpeed="0.00" departDelay="0.77" arrival="30.00" arrivalLane="toB1_0" arrivalPos="41.49" arrivalSpeed="12.32" duration="15.00" routeLength="107.51" waitingTime="0.00" waitingCount="0" stopTime="0.00" timeLoss="5.35" rerouteNo="0" devices="tripinfo_fA2right.1" vType="type1" speedFactor="0.94" vaporized=""/>
    <tripinfo id="fA2forward.2" depart="18.00" departLane="fromA2_0" departPos="5.10" departSpeed="0.00" departDelay="3.51" arrival="32.00" arrivalLane="toA1_0" arrivalPos="19.65" arrivalSpeed="12.16" duration="14.00" routeLength="134.54" waitingTime="0.00" waitingCount="0" stopTime="0.00" timeLoss="3.51" rerouteNo="0" devices="tripinfo_fA2forward.2" vType="type2" speedFactor="0.94" vaporized=""/>
    <tripinfo id="fA1forward.3" depart="15.00" departLane="fromA1_0" departPos="6.10" departSpeed="0.00" departDelay="0.10" arrival="34.00" arrivalLane="toA2_0" arrivalPos="25.85" arrivalSpeed="13.92" duration="19.00" routeLength="131.55" waitingTime="0.00" waitingCount="0" stopTime="0.00" timeLoss="10.34" rerouteNo="0" devices="tripinfo_fA1forward.3" vType="type3" speedFactor="1.16" vaporized=""/>
    <tripinfo id="fA1forward.4" depart="20.00" departLane="fromA1_0" departPos="5.10" departSpeed="0.00" departDelay="0.14" arrival="36.00" arrivalLane="toA2_0" arrivalPos="25.85" arrivalSpeed="13.76" duration="16.00" routeLength="132.55" waitingTime="0.00" waitingCount="0" stopTime="0.00" timeLoss="5.82" rerouteNo="0" devices="tripinfo_fA1forward.4" vType="type2" speedFactor="1.01" vaporized=""/>
    <tripinfo id="fA2forward.3" depart="22.00" departLane="fromA2_0" departPos="4.10" departSpeed="0.00" departDelay="0.27" arrival="38.00" arrivalLane="toA1_0" arrivalPos="19.65" arrivalSpeed="11.54" duration="16.00" routeLength="135.54" waitingTime="0.00" waitingCount="0" stopTime="0.00" timeLoss="4.44" rerouteNo="0" devices="tripinfo_fA2forward.3" vType="type1" speedFactor="0.89" vaporized=""/>
    <tripinfo id="fA1forward.5" depart="25.00" departLane="fromA1_0" departPos="5.10" departSpeed="0.00" departDelay="0.17" arrival="39.00" arrivalLane="toA2_0" arrivalPos="25.85" arrivalSpeed="11.49" duration="14.00" routeLength="132.55" waitingTime="0.00" waitingCount="0" stopTime="0.00" timeLoss="3.54" rerouteNo="0" devices="tripinfo_fA1forward.5" vType="type2" speedFactor="0.92" vaporized=""/>
    <tripinfo id="fA1left.0" depart="1.00" departLane="fromA1_0" departPos="5.10" departSpeed="0.00" departDelay="1.00" arrival="40.00" arrivalLane="toB1_0" arrivalPos="41.49" arrivalSpeed="12.40" duration="39.00" routeLength="117.36" waitingTime="20.00" waitingCount="2" stopTime="0.00" timeLoss="29.09" rerouteNo="0" devices="tripinfo_fA1left.0" vType="type2" speedFactor="0.94" vaporized=""/>
    <tripinfo id="fA2right.2" depart="29.00" departLane="fromA2_0" departPos="5.10" departSpeed="0.00" departDelay="0.54" arrival="43.00" arrivalLane="toB1_0" arrivalPos="41.49" arrivalSpeed="12.59" duration="14.00" routeLength="106.51" waitingTime="0.00" waitingCount="0" stopTime="0.00" timeLoss="4.86" rerouteNo="0" devices="tripinfo_fA2right.2" vType="type2" speedFactor="0.95" vaporized=""/>
    <tripinfo id="fA1forward.6" depart="30.00" departLane="fromA1_0" departPos="4.10" departSpeed="0.00" departDelay="0.20" arrival="44.00" arrivalLane="toA2_0" arrivalPos="25.85" arrivalSpeed="15.48" duration="14.00" routeLength="133.55" waitingTime="0.00" waitingCount="0" stopTime="0.00" timeLoss="5.20" rerouteNo="0" devices="tripinfo_fA1forward.6" vType="type1" speedFactor="1.18" vaporized=""/>
    <tripinfo id="fA2forward.4" depart="32.00" departLane="fromA2_0" departPos="4.10" departSpeed="0.00" departDelay="3.03" arrival="47.00" arrivalLane="toA1_0" arrivalPos="19.65" arrivalSpeed="12.87" duration="15.00" routeLength="135.54" waitingTime="0.00" waitingCount="0" stopTime="0.00" timeLoss="4.00" rerouteNo="0" devices="tripinfo_fA2forward.4" vType="type1" speedFactor="0.93" vaporized=""/>
    <tripinfo id="fA1left.1" depart="21.00" departLane="fromA1_0" departPos="4.10" departSpeed="0.00" departDelay="0.43" arrival="51.00" arrivalLane="toB1_0" arrivalPos="41.49" arrivalSpeed="13.10" duration="30.00" routeLength="118.36" waitingTime="6.00" waitingCount="2" stopTime="0.00" timeLoss="19.84" rerouteNo="0" devices="tripinfo_fA1left.1" vType="type1" speedFactor="0.98" vaporized=""/>
    <tripinfo id="fB1forward.0" depart="0.00" departLane="fromB1_0" departPos="5.10" departSpeed="0.00" departDelay="0.00" arrival="53.00" arrivalLane="toB2_0" arrivalPos="2.39" arrivalSpeed="14.46" duration="53.00" routeLength="103.45" waitingTime="37.00" waitingCount="1" stopTime="0.00" timeLoss="44.97" rerouteNo="0" devices="tripinfo_fB1forward.0" vType="type2" speedFactor="1.05" vaporized=""/>
    <tripinfo id="fB2right.0" depart="3.00" departLane="fromB2_0" departPos="2.39" departSpeed="0.00" departDelay="3.00" arrival="53.00" arrivalLane="toA2_0" arrivalPos="25.85" arrivalSpeed="13.44" duration="50.00" routeLength="99.95" waitingTime="33.00" waitingCount="1" stopTime="0.00" timeLoss="41.84" rerouteNo="0" devices="tripinfo_fB2right.0" vType="type2" speedFactor="1.03" vaporized=""/>
    <tripinfo id="fB1right.0" depart="3.00" departLane="fromB1_0" departPos="4.10" departSpeed="0.00" departDelay="3.00" arrival="54.00" arrivalLane="toA1_0" arrivalPos="19.65" arrivalSpeed="12.14" duration="51.00" routeLength="105.72" waitingTime="32.00" waitingCount="1" stopTime="0.00" timeLoss="41.45" rerouteNo="0" devices="tripinfo_fB1right.0" vType="type1" speedFactor="0.94" vaporized=""/>
    <tripinfo id="fB2forward.0" depart="0.00" departLane="fromB2_0" departPos="2.39" departSpeed="0.00" departDelay="0.00" arrival="54.00" arrivalLane="toB1_0" arrivalPos="41.49" arrivalSpeed="11.41" duration="54.00" routeLength="104.10" waitingTime="35.00" waitingCount="1" stopTime="0.00" timeLoss="44.68" rerouteNo="0" devices="tripinfo_fB2forward.0" vType="type2" speedFactor="0.86" vaporized=""/>
    <tripinfo id="fB1forward.1" depart="8.00" departLane="fromB1_0" departPos="5.10" departSpeed="0.00" departDelay="0.42" arrival="55.00" arrivalLane="toB2_0" arrivalPos="2.39" arrivalSpeed="13.68" duration="47.00" routeLength="103.45" waitingTime="27.00" waitingCount="1" stopTime="0.00" timeLoss="38.60" rerouteNo="0" devices="tripinfo_fB1forward.1" vType="type2" speedFactor="0.99" vaporized=""/>
    <tripinfo id="fB1right.1" depart="29.00" departLane="fromB1_0" departPos="5.10" departSpeed="0.00" departDelay="0.20" arrival="55.00" arrivalLane="toA1_0" arrivalPos="19.65" arrivalSpeed="15.19" duration="26.00" routeLength="104.72" waitingTime="9.00" waitingCount="1" stopTime="0.00" timeLoss="18.34" rerouteNo="0" devices="tripinfo_fB1right.1" vType="type2" speedFactor="1.13" vaporized=""/>
    <tripinfo id="fB2forward.1" depart="11.00" departLane="fromB2_0" departPos="2.39" departSpeed="0.00" departDelay="0.09" arrival="56.00" arrivalLane="toB1_0" arrivalPos="41.49" arrivalSpeed="12.11" duration="45.00" routeLength="104.10" waitingTime="26.00" waitingCount="1" stopTime="0.00" timeLoss="36.44" rerouteNo="0" devices="tripinfo_fB2forward.1" vType="type1" speedFactor="0.88" vaporized=""/>
    <tripinfo id="fB1forward.2" depart="16.00" departLane="fromB1_0" departPos="5.10" departSpeed="0.00" departDelay="0.84" arrival="57.00" arrivalLane="toB2_0" arrivalPos="2.39" arrivalSpeed="14.12" duration="41.00" routeLength="103.45" waitingTime="24.00" waitingCount="1" stopTime="0.00" timeLoss="32.77" rerouteNo="0" devices="tripinfo_fB1forward.2" vType="type2" speedFactor="1.02" vaporized=""/>
    <tripinfo id="fB2forward.2" depart="22.00" departLane="fromB2_0" departPos="2.39" departSpeed="0.00" departDelay="0.18" arrival="59.00" arrivalLane="toB1_0" arrivalPos="41.49" arrivalSpeed="10.24" duration="37.00" routeLength="104.10" waitingTime="18.00" waitingCount="1" stopTime="0.00" timeLoss="27.08" rerouteNo="0" devices="tripinfo_fB2forward.2" vType="type2" speedFactor="0.83" vaporized=""/>
    <tripinfo id="fB1forward.3" depart="23.00" departLane="fromB1_0" departPos="4.10" departSpeed="0.00" departDelay="0.26" arrival="60.00" arrivalLane="toB2_0" arrivalPos="2.39" arrivalSpeed="11.78" duration="37.00" routeLength="104.45" waitingTime="18.00" waitingCount="1" stopTime="0.00" timeLoss="27.77" rerouteNo="0" devices="tripinfo_fB1forward.3" vType="type1" speedFactor="0.87" vaporized=""/>
    <tripinfo id="fB1forward.4" depart="32.00" departLane="fromB1_0" departPos="5.10" departSpeed="0.00" departDelay="1.68" arrival="61.00" arrivalLane="toB2_0" arrivalPos="2.39" arrivalSpeed="14.45" duration="29.00" routeLength="103.45" waitingTime="10.00" waitingCount="1" stopTime="0.00" timeLoss="22.41" rerouteNo="0" devices="tripinfo_fB1forward.4" vType="type2" speedFactor="1.15" vaporized=""/>
    <tripinfo id="fB2forward.3" depart="33.00" departLane="fromB2_0" departPos="2.39" departSpeed="0.00" departDelay="0.27" arrival="63.00" arrivalLane="toB1_0" arrivalPos="41.49" arrivalSpeed="12.58" duration="30.00" routeLength="104.10" waitingTime="7.00" waitingCount="1" stopTime="0.00" timeLoss="21.92" rerouteNo="0" devices="tripinfo_fB2forward.3" vType="type3" speedFactor="1.01" vaporized=""/>
    <tripinfo id="fB1forward.5" depart="51.00" departLane="fromB1_0" departPos="5.10" departSpeed="0.00" departDelay="13.10" arrival="63.00" arrivalLane="toB2_0" arrivalPos="2.39" arrivalSpeed="15.50" duration="12.00" routeLength="103.45" waitingTime="0.00" waitingCount="0" stopTime="0.00" timeLoss="5.28" rerouteNo="0" devices="tripinfo_fB1forward.5" vType="type2" speedFactor="1.18" vaporized=""/>
    <tripinfo id="fB2forward.4" depart="44.00" departLane="fromB2_0" departPos="2.39" departSpeed="0.00" departDelay="0.36" arrival="65.00" arrivalLane="toB1_0" arrivalPos="41.49" arrivalSpeed="14.09" duration="21.00" routeLength="104.10" waitingTime="2.00" waitingCount="2" stopTime="0.00" timeLoss="13.30" rerouteNo="0" devices="tripinfo_fB2forward.4" vType="type2" speedFactor="1.09" vaporized=""/>
    <tripinfo id="fB2forward.5" depart="55.00" departLane="fromB2_0" departPos="2.39" departSpeed="0.00" departDelay="0.45" arrival="68.00" arrivalLane="toB1_0" arrivalPos="41.49" arrivalSpeed="11.75" duration="13.00" routeLength="104.10" waitingTime="0.00" waitingCount="0" stopTime="0.00" timeLoss="3.73" rerouteNo="0" devices="tripinfo_fB2forward.5" vType="type1" speedFactor="0.85" vaporized=""/>
    <tripinfo id="fB1forward.6" depart="52.00" departLane="fromB1_0" departPos="6.10" departSpeed="0.00" departDelay="6.53" arrival="70.00" arrivalLane="toB2_0" arrivalPos="2.39" arrivalSpeed="12.34" duration="18.00" routeLength="102.45" waitingTime="1.00" waitingCount="1" stopTime="0.00" timeLoss="10.65" rerouteNo="0" devices="tripinfo_fB1forward.6" vType="type3" speedFactor="1.04" vaporized=""/>
    <tripinfo id="fB1left.0" depart="1.00" departLane="fromB1_0" departPos="5.10" departSpeed="0.00" departDelay="1.00" arrival="72.00" arrivalLane="toA2_0" arrivalPos="25.85" arrivalSpeed="12.02" duration="71.00" routeLength="120.30" waitingTime="48.00" waitingCount="3" stopTime="0.00" timeLoss="60.52" rerouteNo="0" devices="tripinfo_fB1left.0" vType="type2" speedFactor="0.89" vaporized=""/>
    <tripinfo id="fB1right.2" depart="59.00" departLane="fromB1_0" departPos="5.10" departSpeed="0.00" departDelay="1.40" arrival="72.00" arrivalLane="toA1_0" arrivalPos="19.65" arrivalSpeed="13.74" duration="13.00" routeLength="104.72" waitingTime="0.00" waitingCount="0" stopTime="0.00" timeLoss="4.89" rerouteNo="0" devices="tripinfo_fB1right.2" vType="type2" speedFactor="1.02" vaporized=""/>
    <tripinfo id="fB1forward.7" depart="54.00" departLane="fromB1_0" departPos="6.10" departSpeed="0.00" departDelay="0.95" arrival="75.00" arrivalLane="toB2_0" arrivalPos="2.39" arrivalSpeed="12.13" duration="21.00" routeLength="102.45" waitingTime="3.00" waitingCount="1" stopTime="0.00" timeLoss="12.41" rerouteNo="0" devices="tripinfo_fB1forward.7" vType="type3" speedFactor="0.88" vaporized=""/>
    <tripinfo id="fB1forward.8" depart="62.00" departLane="fromB1_0" departPos="4.10" departSpeed="0.00" departDelay="1.37" arrival="77.00" arrivalLane="toB2_0" arrivalPos="2.39" arrivalSpeed="13.32" duration="15.00" routeLength="104.45" waitingTime="0.00" waitingCount="0" stopTime="0.00" timeLoss="6.94" rerouteNo="0" devices="tripinfo_fB1forward.8" vType="type1" speedFactor="1.00" vaporized=""/>
    <tripinfo id="fB1left.1" depart="36.00" departLane="fromB1_0" departPos="6.10" departSpeed="0.00" departDelay="0.00" arrival="79.00" arrivalLane="toA2_0" arrivalPos="25.85" arrivalSpeed="10.38" duration="43.00" routeLength="119.30" waitingTime="15.00" waitingCount="2" stopTime="0.00" timeLoss="33.72" rerouteNo="0" devices="tripinfo_fB1left.1" vType="type3" speedFactor="1.02" vaporized=""/>
    <tripinfo id="fB2left.0" depart="1.00" departLane="fromB2_0" departPos="2.39" departSpeed="0.00" departDelay="1.00" arrival="82.00" arrivalLane="toA1_0" arrivalPos="19.65" arrivalSpeed="14.47" duration="81.00" routeLength="119.92" waitingTime="59.00" waitingCount="3" stopTime="0.00" timeLoss="72.29" rerouteNo="0" devices="tripinfo_fB2left.0" vType="type2" speedFactor="1.09" vaporized=""/>
    <tripinfo id="fB2left.1" depart="52.00" departLane="fromB2_0" departPos="2.39" departSpeed="0.00" departDelay="0.57" arrival="84.00" arrivalLane="toA1_0" arrivalPos="19.65" arrivalSpeed="11.89" duration="32.00" routeLength="119.92" waitingTime="12.00" waitingCount="1" stopTime="0.00" timeLoss="21.69" rerouteNo="0" devices="tripinfo_fB2left.1" vType="type2" speedFactor="0.90" vaporized=""/>
    <tripinfo id="fA1right.1" depart="34.00" departLane="fromA1_0" departPos="5.10" departSpeed="0.00" departDelay="0.04" arrival="86.00" arrivalLane="toB2_0" arrivalPos="2.39" arrivalSpeed="14.69" duration="52.00" routeLength="103.14" waitingTime="35.00" waitingCount="1" stopTime="0.00" timeLoss="45.04" rerouteNo="0" devices="tripinfo_fA1right.1" vType="type2" speedFactor="1.17" vaporized=""/>
    <tripinfo id="fA2right.3" depart="43.00" departLane="fromA2_0" departPos="5.10" departSpeed="0.00" departDelay="0.31" arrival="87.00" arrivalLane="toB1_0" arrivalPos="41.49" arrivalSpeed="14.21" duration="44.00" routeLength="106.51" waitingTime="26.00" waitingCount="1" stopTime="0.00" timeLoss="35.71" rerouteNo="0" devices="tripinfo_fA2right.3" vType="type2" speedFactor="1.03" vaporized=""/>
    <tripinfo id="fA2forward.5" depart="37.00" departLane="fromA2_0" departPos="5.10" departSpeed="0.00" departDelay="0.78" arrival="89.00" arrivalLane="toA1_0" arrivalPos="19.65" arrivalSpeed="12.41" duration="52.00" routeLength="134.54" waitingTime="32.00" waitingCount="1" stopTime="0.00" timeLoss="41.21" rerouteNo="0" devices="tripinfo_fA2forward.5" vType="type2" speedFactor="0.97" vaporized=""/>
    <tripinfo id="fA2right.4" depart="57.00" departLane="fromA2_0" departPos="5.10" departSpeed="0.00" departDelay="0.08" arrival="89.00" arrivalLane="toB1_0" arrivalPos="41.49" arrivalSpeed="14.20" duration="32.00" routeLength="106.51" waitingTime="14.00" waitingCount="1" stopTime="0.00" timeLoss="24.74" rerouteNo="0" devices="tripinfo_fA2right.4" vType="type2" speedFactor="1.17" vaporized=""/>
    <tripinfo id="fA1right.2" depart="68.00" departLane="fromA1_0" departPos="4.10" departSpeed="0.00" departDelay="0.08" arrival="89.00" arrivalLane="toB2_0" arrivalPos="2.39" arrivalSpeed="12.71" duration="21.00" routeLength="104.14" waitingTime="3.00" waitingCount="1" stopTime="0.00" timeLoss="13.46" rerouteNo="0" devices="tripinfo_fA1right.2" vType="type1" speedFactor="1.08" vaporized=""/>
    <tripinfo id="fA1forward.7" depart="37.00" departLane="fromA1_0" departPos="4.10" departSpeed="0.00" departDelay="2.24" arrival="90.00" arrivalLane="toA2_0" arrivalPos="25.85" arrivalSpeed="13.08" duration="53.00" routeLength="133.55" waitingTime="32.00" waitingCount="1" stopTime="0.00" timeLoss="42.70" rerouteNo="0" devices="tripinfo_fA1forward.7" vType="type1" speedFactor="0.99" vaporized=""/>
    <tripinfo id="fA1forward.8" depart="40.00" departLane="fromA1_0" departPos="5.10" departSpeed="0.00" departDelay="0.27" arrival="91.00" arrivalLane="toA2_0" arrivalPos="25.85" arrivalSpeed="14.68" duration="51.00" routeLength="132.55" waitingTime="31.00" waitingCount="1" stopTime="0.00" timeLoss="42.26" rerouteNo="0" devices="tripinfo_fA1forward.8" vType="type2" speedFactor="1.10" vaporized=""/>
    <tripinfo id="fA2forward.6" depart="46.00" departLane="fromA2_0" departPos="5.10" departSpeed="0.00" departDelay="2.54" arrival="91.00" arrivalLane="toA1_0" arrivalPos="19.65" arrivalSpeed="13.03" duration="45.00" routeLength="134.54" waitingTime="25.00" waitingCount="1" stopTime="0.00" timeLoss="34.22" rerouteNo="0" devices="tripinfo_fA2forward.6" vType="type2" speedFactor="0.96" vaporized=""/>
    <tripinfo id="fA2right.5" depart="72.00" departLane="fromA2_0" departPos="4.10" departSpeed="0.00" departDelay="0.85" arrival="92.00" arrivalLane="toB1_0" arrivalPos="41.49" arrivalSpeed="12.63" duration="20.00" routeLength="107.51" waitingTime="1.00" waitingCount="1" stopTime="0.00" timeLoss="11.35" rerouteNo="0" devices="tripinfo_fA2right.5" vType="type1" speedFactor="0.99" vaporized=""/>
    <tripinfo id="fA1forward.9" depart="45.00" departLane="fromA1_0" departPos="5.10" departSpeed="0.00" departDelay="0.31" arrival="93.00" arrivalLane="toA2_0" arrivalPos="25.85" arrivalSpeed="13.23" duration="48.00" routeLength="132.55" waitingTime="29.00" waitingCount="1" stopTime="0.00" timeLoss="38.54" rerouteNo="0" devices="tripinfo_fA1forward.9" vType="type2" speedFactor="1.04" vaporized=""/>
    <tripinfo id="fA2forward.7" depart="51.00" departLane="fromA2_0" departPos="5.10" departSpeed="0.00" departDelay="0.30" arrival="93.00" arrivalLane="toA1_0" arrivalPos="19.65" arrivalSpeed="13.21" duration="42.00" routeLength="134.54" waitingTime="22.00" waitingCount="1" stopTime="0.00" timeLoss="31.44" rerouteNo="0" devices="tripinfo_fA2forward.7" vType="type2" speedFactor="1.00" vaporized=""/>
    <tripinfo id="fA2forward.8" depart="60.00" departLane="fromA2_0" departPos="5.10" departSpeed="0.00" departDelay="2.06" arrival="94.00" arrivalLane="toA1_0" arrivalPos="19.65" arrivalSpeed="15.04" duration="34.00" routeLength="134.54" waitingTime="16.00" waitingCount="1" stopTime="0.00" timeLoss="24.91" rerouteNo="0" devices="tripinfo_fA2forward.8" vType="type2" speedFactor="1.10" vaporized=""/>
    <tripinfo id="fA1forward.14" depart="72.00" departLane="fromA1_0" departPos="5.10" departSpeed="0.00" departDelay="2.48" arrival="96.00" arrivalLane="toA2_0" arrivalPos="25.85" arrivalSpeed="13.62" duration="24.00" routeLength="132.55" waitingTime="6.00" waitingCount="1" stopTime="0.00" timeLoss="13.75" rerouteNo="0" devices="tripinfo_fA1forward.14" vType="type2" speedFactor="1.02" vaporized=""/>
    <tripinfo id="fA2forward.11" depart="80.00" departLane="fromA2_0" departPos="5.10" departSpeed="0.00" departDelay="0.33" arrival="97.00" arrivalLane="toA1_0" arrivalPos="19.65" arrivalSpeed="13.56" duration="17.00" routeLength="134.54" waitingTime="0.00" waitingCount="0" stopTime="0.00" timeLoss="7.08" rerouteNo="0" devices="tripinfo_fA2forward.11" vType="type2" speedFactor="1.02" vaporized=""/>
    <tripinfo id="fA1forward.10" depart="50.00" departLane="fromA1_0" departPos="4.10" departSpeed="0.00" departDelay="0.34" arrival="99.00" arrivalLane="toA2_0" arrivalPos="25.85" arrivalSpeed="14.21" duration="49.00" routeLength="133.55" waitingTime="25.00" waitingCount="2" stopTime="0.00" timeLoss="39.38" rerouteNo="0" devices="tripinfo_fA1forward.10" vType="type1" speedFactor="1.09" vaporized=""/>
    <tripinfo id="fA2forward.9" depart="66.00" departLane="fromA2_0" departPos="5.10" departSpeed="0.00" departDelay="0.81" arrival="99.00" arrivalLane="toA1_0" arrivalPos="19.65" arrivalSpeed="13.18" duration="33.00" routeLength="134.54" waitingTime="14.00" waitingCount="2" stopTime="0.00" timeLoss="22.98" rerouteNo="0" devices="tripinfo_fA2forward.9" vType="type2" speedFactor="1.02" vaporized=""/>
    <tripinfo id="fA2right.6" depart="86.00" departLane="fromA2_0" departPos="5.10" departSpeed="0.00" departDelay="0.63" arrival="100.00" arrivalLane="toB1_0" arrivalPos="41.49" arrivalSpeed="13.19" duration="14.00" routeLength="106.51" waitingTime="0.00" waitingCount="0" stopTime="0.00" timeLoss="4.31" rerouteNo="0" devices="tripinfo_fA2right.6" vType="type2" speedFactor="0.96" vaporized=""/>
    <tripinfo id="fA1forward.15" depart="75.00" departLane="fromA1_0" departPos="4.10" departSpeed="0.00" departDelay="0.51" arrival="101.00" arrivalLane="toA2_0" arrivalPos="25.85" arrivalSpeed="12.15" duration="26.00" routeLength="133.55" waitingTime="3.00" waitingCount="1" stopTime="0.00" timeLoss="15.25" rerouteNo="0" devices="tripinfo_fA1forward.15" vType="type1" speedFactor="0.91" vaporized=""/>
    <tripinfo id="fA1forward.11" depart="55.00" departLane="fromA1_0" departPos="6.10" departSpeed="0.00" departDelay="0.37" arrival="105.00" arrivalLane="toA2_0" arrivalPos="25.85" arrivalSpeed="11.87" duration="50.00" routeLength="131.55" waitingTime="23.00" waitingCount="2" stopTime="0.00" timeLoss="38.93" rerouteNo="0" devices="tripinfo_fA1forward.11" vType="type3" speedFactor="0.85" vaporized=""/>
    <tripinfo id="fA2forward.10" depart="75.00" departLane="fromA2_0" departPos="6.10" departSpeed="0.00" departDelay="2.57" arrival="105.00" arrivalLane="toA1_0" arrivalPos="19.65" arrivalSpeed="11.95" duration="30.00" routeLength="133.54" waitingTime="4.00" waitingCount="1" stopTime="0.00" timeLoss="19.09" rerouteNo="0" devices="tripinfo_fA2forward.10" vType="type3" speedFactor="0.88" vaporized=""/>
    <tripinfo id="fA1forward.12" depart="60.00" departLane="fromA1_0" departPos="4.10" departSpeed="0.00" departDelay="0.41" arrival="107.00" arrivalLane="toA2_0" arrivalPos="25.85" arrivalSpeed="13.10" duration="47.00" routeLength="133.55" waitingTime="21.00" waitingCount="2" stopTime="0.00" timeLoss="37.15" rerouteNo="0" devices="tripinfo_fA1forward.12" vType="type1" speedFactor="1.00" vaporized=""/>
    <tripinfo id="fA2forward.12" depart="89.00" departLane="fromA2_0" departPos="5.10" departSpeed="0.00" departDelay="2.08" arrival="107.00" arrivalLane="toA1_0" arrivalPos="19.65" arrivalSpeed="13.51" duration="18.00" routeLength="134.54" waitingTime="0.00" waitingCount="0" stopTime="0.00" timeLoss="8.32" rerouteNo="0" devices="tripinfo_fA2forward.12" vType="type2" speedFactor="1.03" vaporized=""/>
    <tripinfo id="fA1forward.16" depart="80.00" departLane="fromA1_0" departPos="4.10" departSpeed="0.00" departDelay="0.54" arrival="109.00" arrivalLane="toA2_0" arrivalPos="25.85" arrivalSpeed="13.66" duration="29.00" routeLength="133.55" waitingTime="8.00" waitingCount="2" stopTime="0.00" timeLoss="19.03" rerouteNo="0" devices="tripinfo_fA1forward.16" vType="type1" speedFactor="1.02" vaporized=""/>
    <tripinfo id="fA2forward.13" depart="95.00" departLane="fromA2_0" departPos="5.10" departSpeed="0.00" departDelay="0.84" arrival="109.00" arrivalLane="toA1_0" arrivalPos="19.65" arrivalSpeed="14.00" duration="14.00" routeLength="134.54" waitingTime="0.00" waitingCount="0" stopTime="0.00" timeLoss="4.11" rerouteNo="0" devices="tripinfo_fA2forward.13" vType="type2" speedFactor="1.03" vaporized=""/>
    <tripinfo id="fA1forward.13" depart="65.00" departLane="fromA1_0" departPos="5.10" departSpeed="0.00" departDelay="0.44" arrival="110.00" arrivalLane="toA2_0" arrivalPos="25.85" arrivalSpeed="15.70" duration="45.00" routeLength="132.55" waitingTime="18.00" waitingCount="3" stopTime="0.00" timeLoss="36.50" rerouteNo="0" devices="tripinfo_fA1forward.13" vType="type2" speedFactor="1.14" vaporized=""/>
    <tripinfo id="fA1forward.17" depart="87.00" departLane="fromA1_0" departPos="5.10" departSpeed="0.00" departDelay="2.58" arrival="112.00" arrivalLane="toA2_0" arrivalPos="25.85" arrivalSpeed="14.41" duration="25.00" routeLength="132.55" waitingTime="2.00" waitingCount="2" stopTime="0.00" timeLoss="15.63" rerouteNo="0" devices="tripinfo_fA1forward.17" vType="type2" speedFactor="1.06" vaporized=""/>
    <tripinfo id="fA1forward.19" depart="99.00" departLane="fromA1_0" departPos="4.10" departSpeed="0.00" departDelay="4.65" arrival="114.00" arrivalLane="toA2_0" arrivalPos="25.85" arrivalSpeed="13.55" duration="15.00" routeLength="133.55" waitingTime="0.00" waitingCount="0" stopTime="0.00" timeLoss="4.92" rerouteNo="0" devices="tripinfo_fA1forward.19" vType="type1" speedFactor="1.00" vaporized=""/>
    <tripinfo id="fA2right.7" depart="100.00" departLane="fromA2_0" departPos="5.10" departSpeed="0.00" departDelay="0.40" arrival="114.00" arrivalLane="toB1_0" arrivalPos="41.49" arrivalSpeed="12.74" duration="14.00" routeLength="106.51" waitingTime="0.00" waitingCount="0" stopTime="0.00" timeLoss="4.79" rerouteNo="0" devices="tripinfo_fA2right.7" vType="type2" speedFactor="0.98" vaporized=""/>
    <tripinfo id="fA1forward.20" depart="102.00" departLane="fromA1_0" departPos="4.10" departSpeed="0.00" departDelay="2.68" arrival="116.00" arrivalLane="toA2_0" arrivalPos="25.85" arrivalSpeed="15.73" duration="14.00" routeLength="133.55" waitingTime="0.00" waitingCount="0" stopTime="0.00" timeLoss="4.95" rerouteNo="0" devices="tripinfo_fA1forward.20" vType="type1" speedFactor="1.15" vaporized=""/>
    <tripinfo id="fA1left.2" depart="42.00" departLane="fromA1_0" departPos="5.10" departSpeed="0.00" departDelay="0.86" arrival="118.00" arrivalLane="toB1_0" arrivalPos="41.49" arrivalSpeed="12.05" duration="76.00" routeLength="117.36" waitingTime="53.00" waitingCount="2" stopTime="0.00" timeLoss="65.33" rerouteNo="0" devices="tripinfo_fA1left.2" vType="type2" speedFactor="0.90" vaporized=""/>
    <tripinfo id="fA1right.3" depart="105.00" departLane="fromA1_0" departPos="4.10" departSpeed="0.00" departDelay="3.11" arrival="119.00" arrivalLane="toB2_0" arrivalPos="2.39" arrivalSpeed="12.82" duration="14.00" routeLength="104.14" waitingTime="0.00" waitingCount="0" stopTime="0.00" timeLoss="6.00" rerouteNo="0" devices="tripinfo_fA1right.3" vType="type1" speedFactor="1.04" vaporized=""/>