<?xml version="1.0" encoding="UTF-8"?>

<!-- generated on 2021-10-28 15:57:39 by Eclipse SUMO GUI Version 1.10.0
<configuration xmlns:xsi="http://www.w3.org/2001/XMLSchema-instance" xsi:noNamespaceSchemaLocation="http://sumo.dlr.de/xsd/sumoConfiguration.xsd">

    <input>
        <net-file value="data/cross.net.xml"/>
        <route-files value="data/vehicles.rou.xml,data/cyclists.rou.xml,data/pedestrians.rou.xml"/>
        <additional-files value="data/radars.add.xml,data/early_bikes.tll.xml"/>
    </input>

    <traci_server>
        <remote-port value="49759"/>
    </traci_server>

</configuration>
-->

<detector xmlns:xsi="http://www.w3.org/2001/XMLSchema-instance" xsi:noNamespaceSchemaLocation="http://sumo.dlr.de/xsd/det_e2_file.xsd">
   <interval begin="0.00" end="60.00" id="e2det_EC_1" sampledSeconds="0.00" nVehEntered="0" nVehLeft="0" nVehSeen="0" meanSpeed="-1.00" meanTimeLoss="-1.00" meanOccupancy="0.00" maxOccupancy="0.00" meanMaxJamLengthInVehicles="0.00" meanMaxJamLengthInMeters="0.00" maxJamLengthInVehicles="0" maxJamLengthInMeters="0.00" jamLengthInVehiclesSum="0" jamLengthInMetersSum="0.00" meanHaltingDuration="0.00" maxHaltingDuration="0.00" haltingDurationSum="0.00" meanIntervalHaltingDuration="0.00" maxIntervalHaltingDuration="0.00" intervalHaltingDurationSum="0.00" startedHalts="0.00" meanVehicleNumber="0.00" maxVehicleNumber="0" />
   <interval begin="0.00" end="60.00" id="e2det_EC_2" sampledSeconds="0.00" nVehEntered="0" nVehLeft="0" nVehSeen="0" meanSpeed="-1.00" meanTimeLoss="-1.00" meanOccupancy="0.00" maxOccupancy="0.00" meanMaxJamLengthInVehicles="0.00" meanMaxJamLengthInMeters="0.00" maxJamLengthInVehicles="0" maxJamLengthInMeters="0.00" jamLengthInVehiclesSum="0" jamLengthInMetersSum="0.00" meanHaltingDuration="0.00" maxHaltingDuration="0.00" haltingDurationSum="0.00" meanIntervalHaltingDuration="0.00" maxIntervalHaltingDuration="0.00" intervalHaltingDurationSum="0.00" startedHalts="0.00" meanVehicleNumber="0.00" maxVehicleNumber="0" />
   <interval begin="0.00" end="60.00" id="e2det_EC_3" sampledSeconds="11.60" nVehEntered="1" nVehLeft="1" nVehSeen="1" meanSpeed="4.94" meanTimeLoss="7.20" meanOccupancy="1.71" maxOccupancy="9.56" meanMaxJamLengthInVehicles="0.05" meanMaxJamLengthInMeters="0.25" maxJamLengthInVehicles="1" maxJamLengthInMeters="5.00" jamLengthInVehiclesSum="3" jamLengthInMetersSum="15.00" meanHaltingDuration="4.00" maxHaltingDuration="4.00" haltingDurationSum="4.00" meanIntervalHaltingDuration="4.00" maxIntervalHaltingDuration="4.00" intervalHaltingDurationSum="4.00" startedHalts="1.00" meanVehicleNumber="0.22" maxVehicleNumber="1" />
   <interval begin="0.00" end="60.00" id="e2det_EC_4" sampledSeconds="0.00" nVehEntered="0" nVehLeft="0" nVehSeen="0" meanSpeed="-1.00" meanTimeLoss="-1.00" meanOccupancy="0.00" maxOccupancy="0.00" meanMaxJamLengthInVehicles="0.00" meanMaxJamLengthInMeters="0.00" maxJamLengthInVehicles="0" maxJamLengthInMeters="0.00" jamLengthInVehiclesSum="0" jamLengthInMetersSum="0.00" meanHaltingDuration="0.00" maxHaltingDuration="0.00" haltingDurationSum="0.00" meanIntervalHaltingDuration="0.00" maxIntervalHaltingDuration="0.00" intervalHaltingDurationSum="0.00" startedHalts="0.00" meanVehicleNumber="0.00" maxVehicleNumber="0" />
   <interval begin="0.00" end="60.00" id="e2det_NC_1" sampledSeconds="0.00" nVehEntered="0" nVehLeft="0" nVehSeen="0" meanSpeed="-1.00" meanTimeLoss="-1.00" meanOccupancy="0.00" maxOccupancy="0.00" meanMaxJamLengthInVehicles="0.00" meanMaxJamLengthInMeters="0.00" maxJamLengthInVehicles="0" maxJamLengthInMeters="0.00" jamLengthInVehiclesSum="0" jamLengthInMetersSum="0.00" meanHaltingDuration="0.00" maxHaltingDuration="0.00" haltingDurationSum="0.00" meanIntervalHaltingDuration="0.00" maxIntervalHaltingDuration="0.00" intervalHaltingDurationSum="0.00" startedHalts="0.00" meanVehicleNumber="0.00" maxVehicleNumber="0" />
   <interval begin="0.00" end="60.00" id="e2det_NC_2" sampledSeconds="10.60" nVehEntered="1" nVehLeft="1" nVehSeen="1" meanSpeed="5.12" meanTimeLoss="6.72" meanOccupancy="1.65" maxOccupancy="10.14" meanMaxJamLengthInVehicles="0.05" meanMaxJamLengthInMeters="0.25" maxJamLengthInVehicles="1" maxJamLengthInMeters="5.00" jamLengthInVehiclesSum="3" jamLengthInMetersSum="15.00" meanHaltingDuration="4.00" maxHaltingDuration="4.00" haltingDurationSum="4.00" meanIntervalHaltingDuration="4.00" maxIntervalHaltingDuration="4.00" intervalHaltingDurationSum="4.00" startedHalts="1.00" meanVehicleNumber="0.18" maxVehicleNumber="1" />
   <interval begin="0.00" end="60.00" id="e2det_NC_3" sampledSeconds="19.22" nVehEntered="1" nVehLeft="0" nVehSeen="1" meanSpeed="2.69" meanTimeLoss="15.81" meanOccupancy="3.24" maxOccupancy="10.14" meanMaxJamLengthInVehicles="0.20" meanMaxJamLengthInMeters="1.00" maxJamLengthInVehicles="1" maxJamLengthInMeters="5.00" jamLengthInVehiclesSum="12" jamLengthInMetersSum="60.00" meanHaltingDuration="13.00" maxHaltingDuration="13.00" haltingDurationSum="13.00" meanIntervalHaltingDuration="13.00" maxIntervalHaltingDuration="13.00" intervalHaltingDurationSum="13.00" startedHalts="1.00" meanVehicleNumber="0.33" maxVehicleNumber="1" />
   <interval begin="0.00" end="60.00" id="e2det_NC_4" sampledSeconds="5.01" nVehEntered="1" nVehLeft="1" nVehSeen="1" meanSpeed="10.84" meanTimeLoss="0.18" meanOccupancy="0.81" maxOccupancy="10.14" meanMaxJamLengthInVehicles="0.00" meanMaxJamLengthInMeters="0.00" maxJamLengthInVehicles="0" maxJamLengthInMeters="0.00" jamLengthInVehiclesSum="0" jamLengthInMetersSum="0.00" meanHaltingDuration="0.00" maxHaltingDuration="0.00" haltingDurationSum="0.00" meanIntervalHaltingDuration="0.00" maxIntervalHaltingDuration="0.00" intervalHaltingDurationSum="0.00" startedHalts="0.00" meanVehicleNumber="0.10" maxVehicleNumber="1" />
   <interval begin="0.00" end="60.00" id="e2det_SC_1" sampledSeconds="0.00" nVehEntered="0" nVehLeft="0" nVehSeen="0" meanSpeed="-1.00" meanTimeLoss="-1.00" meanOccupancy="0.00" maxOccupancy="0.00" meanMaxJamLengthInVehicles="0.00" meanMaxJamLengthInMeters="0.00" maxJamLengthInVehicles="0" maxJamLengthInMeters="0.00" jamLengthInVehiclesSum="0" jamLengthInMetersSum="0.00" meanHaltingDuration="0.00" maxHaltingDuration="0.00" haltingDurationSum="0.00" meanIntervalHaltingDuration="0.00" maxIntervalHaltingDuration="0.00" intervalHaltingDurationSum="0.00" startedHalts="0.00" meanVehicleNumber="0.00" maxVehicleNumber="0" />
   <interval begin="0.00" end="60.00" id="e2det_SC_2" sampledSeconds="0.00" nVehEntered="0" nVehLeft="0" nVehSeen="0" meanSpeed="-1.00" meanTimeLoss="-1.00" meanOccupancy="0.00" maxOccupancy="0.00" meanMaxJamLengthInVehicles="0.00" meanMaxJamLengthInMeters="0.00" maxJamLengthInVehicles="0" maxJamLengthInMeters="0.00" jamLengthInVehiclesSum="0" jamLengthInMetersSum="0.00" meanHaltingDuration="0.00" maxHaltingDuration="0.00" haltingDurationSum="0.00" meanIntervalHaltingDuration="0.00" maxIntervalHaltingDuration="0.00" intervalHaltingDurationSum="0.00" startedHalts="0.00" meanVehicleNumber="0.00" maxVehicleNumber="0" />
   <interval begin="0.00" end="60.00" id="e2det_SC_3" sampledSeconds="4.91" nVehEntered="1" nVehLeft="1" nVehSeen="1" meanSpeed="11.66" meanTimeLoss="0.75" meanOccupancy="0.69" maxOccupancy="9.56" meanMaxJamLengthInVehicles="0.00" meanMaxJamLengthInMeters="0.00" maxJamLengthInVehicles="0" maxJamLengthInMeters="0.00" jamLengthInVehiclesSum="0" jamLengthInMetersSum="0.00" meanHaltingDuration="0.00" maxHaltingDuration="0.00" haltingDurationSum="0.00" meanIntervalHaltingDuration="0.00" maxIntervalHaltingDuration="0.00" intervalHaltingDurationSum="0.00" startedHalts="0.00" meanVehicleNumber="0.10" maxVehicleNumber="1" />
   <interval begin="0.00" end="60.00" id="e2det_SC_4" sampledSeconds="4.37" nVehEntered="1" nVehLeft="1" nVehSeen="1" meanSpeed="13.12" meanTimeLoss="0.25" meanOccupancy="0.60" maxOccupancy="9.56" meanMaxJamLengthInVehicles="0.00" meanMaxJamLengthInMeters="0.00" maxJamLengthInVehicles="0" maxJamLengthInMeters="0.00" jamLengthInVehiclesSum="0" jamLengthInMetersSum="0.00" meanHaltingDuration="0.00" maxHaltingDuration="0.00" haltingDurationSum="0.00" meanIntervalHaltingDuration="0.00" maxIntervalHaltingDuration="0.00" intervalHaltingDurationSum="0.00" startedHalts="0.00" meanVehicleNumber="0.08" maxVehicleNumber="1" />
   <interval begin="0.00" end="60.00" id="e2det_WC_1" sampledSeconds="9.57" nVehEntered="1" nVehLeft="1" nVehSeen="1" meanSpeed="5.32" meanTimeLoss="0.41" meanOccupancy="0.49" maxOccupancy="3.25" meanMaxJamLengthInVehicles="0.00" meanMaxJamLengthInMeters="0.00" maxJamLengthInVehicles="0" maxJamLengthInMeters="0.00" jamLengthInVehiclesSum="0" jamLengthInMetersSum="0.00" meanHaltingDuration="0.00" maxHaltingDuration="0.00" haltingDurationSum="0.00" meanIntervalHaltingDuration="0.00" maxIntervalHaltingDuration="0.00" intervalHaltingDurationSum="0.00" startedHalts="0.00" meanVehicleNumber="0.17" maxVehicleNumber="1" />
   <interval begin="0.00" end="60.00" id="e2det_WC_2" sampledSeconds="77.46" nVehEntered="5" nVehLeft="3" nVehSeen="5" meanSpeed="3.27" meanTimeLoss="11.55" meanOccupancy="12.83" maxOccupancy="40.57" meanMaxJamLengthInVehicles="0.58" meanMaxJamLengthInMeters="3.03" maxJamLengthInVehicles="2" maxJamLengthInMeters="14.02" jamLengthInVehiclesSum="35" jamLengthInMetersSum="181.53" meanHaltingDuration="6.83" maxHaltingDuration="21.00" haltingDurationSum="41.00" meanIntervalHaltingDuration="6.83" maxIntervalHaltingDuration="21.00" intervalHaltingDurationSum="41.00" startedHalts="6.00" meanVehicleNumber="1.35" maxVehicleNumber="4" />
   <interval begin="0.00" end="60.00" id="e2det_WC_3" sampledSeconds="11.44" nVehEntered="1" nVehLeft="0" nVehSeen="1" meanSpeed="4.23" meanTimeLoss="8.34" meanOccupancy="2.03" maxOccupancy="10.14" meanMaxJamLengthInVehicles="0.10" meanMaxJamLengthInMeters="0.50" maxJamLengthInVehicles="1" maxJamLengthInMeters="5.00" jamLengthInVehiclesSum="6" jamLengthInMetersSum="30.00" meanHaltingDuration="7.00" maxHaltingDuration="7.00" haltingDurationSum="7.00" meanIntervalHaltingDuration="7.00" maxIntervalHaltingDuration="7.00" intervalHaltingDurationSum="7.00" startedHalts="1.00" meanVehicleNumber="0.20" maxVehicleNumber="1" />
   <interval begin="0.00" end="60.00" id="e2det_WC_4" sampledSeconds="13.38" nVehEntered="1" nVehLeft="1" nVehSeen="1" meanSpeed="4.06" meanTimeLoss="9.61" meanOccupancy="2.13" maxOccupancy="10.14" meanMaxJamLengthInVehicles="0.10" meanMaxJamLengthInMeters="0.50" maxJamLengthInVehicles="1" maxJamLengthInMeters="5.00" jamLengthInVehiclesSum="6" jamLengthInMetersSum="30.00" meanHaltingDuration="7.00" maxHaltingDuration="7.00" haltingDurationSum="7.00" meanIntervalHaltingDuration="7.00" maxIntervalHaltingDuration="7.00" intervalHaltingDurationSum="7.00" startedHalts="1.00" meanVehicleNumber="0.25" maxVehicleNumber="1" />
   <interval begin="60.00" end="120.00" id="e2det_EC_1" sampledSeconds="58.22" nVehEntered="3" nVehLeft="3" nVehSeen="3" meanSpeed="2.78" meanTimeLoss="9.70" meanOccupancy="2.89" maxOccupancy="9.18" meanMaxJamLengthInVehicles="0.35" meanMaxJamLengthInMeters="0.63" maxJamLengthInVehicles="2" maxJamLengthInMeters="4.60" jamLengthInVehiclesSum="21" jamLengthInMetersSum="38.05" meanHaltingDuration="8.00" maxHaltingDuration="13.00" haltingDurationSum="24.00" meanIntervalHaltingDuration="8.00" maxIntervalHaltingDuration="13.00" intervalHaltingDurationSum="24.00" startedHalts="3.00" meanVehicleNumber="1.02" maxVehicleNumber="3" />
   <interval begin="60.00" end="120.00" id="e2det_EC_2" sampledSeconds="21.89" nVehEntered="1" nVehLeft="0" nVehSeen="1" meanSpeed="2.35" meanTimeLoss="17.73" meanOccupancy="3.51" maxOccupancy="9.56" meanMaxJamLengthInVehicles="0.27" meanMaxJamLengthInMeters="1.33" maxJamLengthInVehicles="1" maxJamLengthInMeters="5.00" jamLengthInVehiclesSum="16" jamLengthInMetersSum="80.00" meanHaltingDuration="17.00" maxHaltingDuration="17.00" haltingDurationSum="17.00" meanIntervalHaltingDuration="17.00" maxIntervalHaltingDuration="17.00" intervalHaltingDurationSum="17.00" startedHalts="1.00" meanVehicleNumber="0.37" maxVehicleNumber="1" />
   <interval begin="60.00" end="120.00" id="e2det_EC_3" sampledSeconds="0.00" nVehEntered="0" nVehLeft="0" nVehSeen="0" meanSpeed="-1.00" meanTimeLoss="-1.00" meanOccupancy="0.00" maxOccupancy="0.00" meanMaxJamLengthInVehicles="0.00" meanMaxJamLengthInMeters="0.00" maxJamLengthInVehicles="0" maxJamLengthInMeters="0.00" jamLengthInVehiclesSum="0" jamLengthInMetersSum="0.00" meanHaltingDuration="0.00" maxHaltingDuration="0.00" haltingDurationSum="0.00" meanIntervalHaltingDuration="0.00" maxIntervalHaltingDuration="0.00" intervalHaltingDurationSum="0.00" startedHalts="0.00" meanVehicleNumber="0.00" maxVehicleNumber="0" />
   <interval begin="60.00" end="120.00" id="e2det_EC_4" sampledSeconds="0.00" nVehEntered="0" nVehLeft="0" nVehSeen="0" meanSpeed="-1.00" meanTimeLoss="-1.00" meanOccupancy="0.00" maxOccupancy="0.00" meanMaxJamLengthInVehicles="0.00" meanMaxJamLengthInMeters="0.00" maxJamLengthInVehicles="0" maxJamLengthInMeters="0.00" jamLengthInVehiclesSum="0" jamLengthInMetersSum="0.00" meanHaltingDuration="0.00" maxHaltingDuration="0.00" haltingDurationSum="0.00" meanIntervalHaltingDuration="0.00" maxIntervalHaltingDuration="0.00" intervalHaltingDurationSum="0.00" startedHalts="0.00" meanVehicleNumber="0.00" maxVehicleNumber="0" />
   <interval begin="60.00" end="120.00" id="e2det_NC_1" sampledSeconds="38.91" nVehEntered="5" nVehLeft="4" nVehSeen="5" meanSpeed="5.29" meanTimeLoss="0.37" meanOccupancy="2.12" maxOccupancy="12.98" meanMaxJamLengthInVehicles="0.00" meanMaxJamLengthInMeters="0.00" maxJamLengthInVehicles="0" maxJamLengthInMeters="0.00" jamLengthInVehiclesSum="0" jamLengthInMetersSum="0.00" meanHaltingDuration="0.00" maxHaltingDuration="0.00" haltingDurationSum="0.00" meanIntervalHaltingDuration="0.00" maxIntervalHaltingDuration="0.00" intervalHaltingDurationSum="0.00" startedHalts="0.00" meanVehicleNumber="0.73" maxVehicleNumber="4" />
   <interval begin="60.00" end="120.00" id="e2det_NC_2" sampledSeconds="0.00" nVehEntered="0" nVehLeft="0" nVehSeen="0" meanSpeed="-1.00" meanTimeLoss="-1.00" meanOccupancy="0.00" maxOccupancy="0.00" meanMaxJamLengthInVehicles="0.00" meanMaxJamLengthInMeters="0.00" maxJamLengthInVehicles="0" maxJamLengthInMeters="0.00" jamLengthInVehiclesSum="0" jamLengthInMetersSum="0.00" meanHaltingDuration="0.00" maxHaltingDuration="0.00" haltingDurationSum="0.00" meanIntervalHaltingDuration="0.00" maxIntervalHaltingDuration="0.00" intervalHaltingDurationSum="0.00" startedHalts="0.00" meanVehicleNumber="0.00" maxVehicleNumber="0" />
   <interval begin="60.00" end="120.00" id="e2det_NC_3" sampledSeconds="4.96" nVehEntered="1" nVehLeft="2" nVehSeen="2" meanSpeed="11.47" meanTimeLoss="0.28" meanOccupancy="0.68" maxOccupancy="10.14" meanMaxJamLengthInVehicles="0.00" meanMaxJamLengthInMeters="0.00" maxJamLengthInVehicles="0" maxJamLengthInMeters="0.00" jamLengthInVehiclesSum="0" jamLengthInMetersSum="0.00" meanHaltingDuration="0.00" maxHaltingDuration="0.00" haltingDurationSum="0.00" meanIntervalHaltingDuration="0.00" maxIntervalHaltingDuration="0.00" intervalHaltingDurationSum="0.00" startedHalts="0.00" meanVehicleNumber="0.10" maxVehicleNumber="2" />
   <interval begin="60.00" end="120.00" id="e2det_NC_4" sampledSeconds="18.41" nVehEntered="1" nVehLeft="1" nVehSeen="1" meanSpeed="2.95" meanTimeLoss="14.50" meanOccupancy="2.96" maxOccupancy="10.14" meanMaxJamLengthInVehicles="0.17" meanMaxJamLengthInMeters="0.83" maxJamLengthInVehicles="1" maxJamLengthInMeters="5.00" jamLengthInVehiclesSum="10" jamLengthInMetersSum="50.00" meanHaltingDuration="11.00" maxHaltingDuration="11.00" haltingDurationSum="11.00" meanIntervalHaltingDuration="11.00" maxIntervalHaltingDuration="11.00" intervalHaltingDurationSum="11.00" startedHalts="1.00" meanVehicleNumber="0.33" maxVehicleNumber="1" />
   <interval begin="60.00" end="120.00" id="e2det_SC_1" sampledSeconds="43.97" nVehEntered="3" nVehLeft="3" nVehSeen="3" meanSpeed="3.68" meanTimeLoss="4.95" meanOccupancy="2.18" maxOccupancy="6.12" meanMaxJamLengthInVehicles="0.18" meanMaxJamLengthInMeters="0.29" maxJamLengthInVehicles="1" maxJamLengthInMeters="1.60" jamLengthInVehiclesSum="11" jamLengthInMetersSum="17.60" meanHaltingDuration="12.00" maxHaltingDuration="12.00" haltingDurationSum="12.00" meanIntervalHaltingDuration="12.00" maxIntervalHaltingDuration="12.00" intervalHaltingDurationSum="12.00" startedHalts="1.00" meanVehicleNumber="0.80" maxVehicleNumber="2" />
   <interval begin="60.00" end="120.00" id="e2det_SC_2" sampledSeconds="22.91" nVehEntered="1" nVehLeft="1" nVehSeen="1" meanSpeed="2.50" meanTimeLoss="18.51" meanOccupancy="3.52" maxOccupancy="9.56" meanMaxJamLengthInVehicles="0.27" meanMaxJamLengthInMeters="1.33" maxJamLengthInVehicles="1" maxJamLengthInMeters="5.00" jamLengthInVehiclesSum="16" jamLengthInMetersSum="79.59" meanHaltingDuration="17.00" maxHaltingDuration="17.00" haltingDurationSum="17.00" meanIntervalHaltingDuration="17.00" maxIntervalHaltingDuration="17.00" intervalHaltingDurationSum="17.00" startedHalts="1.00" meanVehicleNumber="0.40" maxVehicleNumber="1" />
   <interval begin="60.00" end="120.00" id="e2det_SC_3" sampledSeconds="19.47" nVehEntered="2" nVehLeft="2" nVehSeen="2" meanSpeed="5.89" meanTimeLoss="5.65" meanOccupancy="2.84" maxOccupancy="9.56" meanMaxJamLengthInVehicles="0.12" meanMaxJamLengthInMeters="0.58" maxJamLengthInVehicles="1" maxJamLengthInMeters="5.00" jamLengthInVehiclesSum="7" jamLengthInMetersSum="35.00" meanHaltingDuration="8.00" maxHaltingDuration="8.00" haltingDurationSum="8.00" meanIntervalHaltingDuration="8.00" maxIntervalHaltingDuration="8.00" intervalHaltingDurationSum="8.00" startedHalts="1.00" meanVehicleNumber="0.33" maxVehicleNumber="1" />
   <interval begin="60.00" end="120.00" id="e2det_SC_4" sampledSeconds="0.00" nVehEntered="0" nVehLeft="0" nVehSeen="0" meanSpeed="-1.00" meanTimeLoss="-1.00" meanOccupancy="0.00" maxOccupancy="0.00" meanMaxJamLengthInVehicles="0.00" meanMaxJamLengthInMeters="0.00" maxJamLengthInVehicles="0" maxJamLengthInMeters="0.00" jamLengthInVehiclesSum="0" jamLengthInMetersSum="0.00" meanHaltingDuration="0.00" maxHaltingDuration="0.00" haltingDurationSum="0.00" meanIntervalHaltingDuration="0.00" maxIntervalHaltingDuration="0.00" intervalHaltingDurationSum="0.00" startedHalts="0.00" meanVehicleNumber="0.00" maxVehicleNumber="0" />
   <interval begin="60.00" end="120.00" id="e2det_WC_1" sampledSeconds="87.49" nVehEntered="4" nVehLeft="2" nVehSeen="4" meanSpeed="2.25" meanTimeLoss="13.03" meanOccupancy="4.70" maxOccupancy="6.49" meanMaxJamLengthInVehicles="0.72" meanMaxJamLengthInMeters="1.30" maxJamLengthInVehicles="2" maxJamLengthInMeters="4.60" jamLengthInVehiclesSum="43" jamLengthInMetersSum="77.80" meanHaltingDuration="11.75" maxHaltingDuration="14.00" haltingDurationSum="47.00" meanIntervalHaltingDuration="11.75" maxIntervalHaltingDuration="14.00" intervalHaltingDurationSum="47.00" startedHalts="4.00" meanVehicleNumber="1.50" maxVehicleNumber="2" />
   <interval begin="60.00" end="120.00" id="e2det_WC_2" sampledSeconds="135.74" nVehEntered="2" nVehLeft="3" nVehSeen="4" meanSpeed="0.89" meanTimeLoss="31.49" meanOccupancy="22.47" maxOccupancy="40.57" meanMaxJamLengthInVehicles="1.83" meanMaxJamLengthInMeters="11.58" maxJamLengthInVehicles="4" maxJamLengthInMeters="27.51" jamLengthInVehiclesSum="110" jamLengthInMetersSum="694.66" meanHaltingDuration="24.80" maxHaltingDuration="40.00" haltingDurationSum="124.00" meanIntervalHaltingDuration="22.60" maxIntervalHaltingDuration="32.00" intervalHaltingDurationSum="113.00" startedHalts="3.00" meanVehicleNumber="2.28" maxVehicleNumber="4" />
   <interval begin="60.00" end="120.00" id="e2det_WC_3" sampledSeconds="69.73" nVehEntered="2" nVehLeft="3" nVehSeen="3" meanSpeed="1.64" meanTimeLoss="20.60" meanOccupancy="11.50" maxOccupancy="30.43" meanMaxJamLengthInVehicles="0.85" meanMaxJamLengthInMeters="5.02" maxJamLengthInVehicles="3" maxJamLengthInMeters="20.07" jamLengthInVehiclesSum="51" jamLengthInMetersSum="301.48" meanHaltingDuration="20.00" maxHaltingDuration="37.00" haltingDurationSum="60.00" meanIntervalHaltingDuration="17.67" maxIntervalHaltingDuration="30.00" intervalHaltingDurationSum="53.00" startedHalts="2.00" meanVehicleNumber="1.20" maxVehicleNumber="3" />
   <interval begin="60.00" end="120.00" id="e2det_WC_4" sampledSeconds="0.00" nVehEntered="0" nVehLeft="0" nVehSeen="0" meanSpeed="-1.00" meanTimeLoss="-1.00" meanOccupancy="0.00" maxOccupancy="0.00" meanMaxJamLengthInVehicles="0.00" meanMaxJamLengthInMeters="0.00" maxJamLengthInVehicles="0" maxJamLengthInMeters="0.00" jamLengthInVehiclesSum="0" jamLengthInMetersSum="0.00" meanHaltingDuration="0.00" maxHaltingDuration="0.00" haltingDurationSum="0.00" meanIntervalHaltingDuration="0.00" maxIntervalHaltingDuration="0.00" intervalHaltingDurationSum="0.00" startedHalts="0.00" meanVehicleNumber="0.00" maxVehicleNumber="0" />
   <interval begin="120.00" end="180.00" id="e2det_EC_1" sampledSeconds="30.57" nVehEntered="1" nVehLeft="0" nVehSeen="1" meanSpeed="1.68" meanTimeLoss="21.32" meanOccupancy="1.58" maxOccupancy="3.06" meanMaxJamLengthInVehicles="0.32" meanMaxJamLengthInMeters="0.51" maxJamLengthInVehicles="1" maxJamLengthInMeters="1.60" jamLengthInVehiclesSum="19" jamLengthInMetersSum="30.40" meanHaltingDuration="20.00" maxHaltingDuration="20.00" haltingDurationSum="20.00" meanIntervalHaltingDuration="20.00" maxIntervalHaltingDuration="20.00" intervalHaltingDurationSum="20.00" startedHalts="1.00" meanVehicleNumber="0.52" maxVehicleNumber="1" />
   <interval begin="120.00" end="180.00" id="e2det_EC_2" sampledSeconds="39.38" nVehEntered="2" nVehLeft="3" nVehSeen="3" meanSpeed="3.06" meanTimeLoss="10.16" meanOccupancy="5.89" maxOccupancy="19.12" meanMaxJamLengthInVehicles="0.40" meanMaxJamLengthInMeters="2.08" maxJamLengthInVehicles="2" maxJamLengthInMeters="12.55" jamLengthInVehiclesSum="24" jamLengthInMetersSum="125.07" meanHaltingDuration="21.00" maxHaltingDuration="37.00" haltingDurationSum="42.00" meanIntervalHaltingDuration="12.50" maxIntervalHaltingDuration="20.00" intervalHaltingDurationSum="25.00" startedHalts="1.00" meanVehicleNumber="0.70" maxVehicleNumber="2" />
   <interval begin="120.00" end="180.00" id="e2det_EC_3" sampledSeconds="19.51" nVehEntered="1" nVehLeft="0" nVehSeen="1" meanSpeed="2.63" meanTimeLoss="15.79" meanOccupancy="3.19" maxOccupancy="9.56" meanMaxJamLengthInVehicles="0.22" meanMaxJamLengthInMeters="1.08" maxJamLengthInVehicles="1" maxJamLengthInMeters="5.00" jamLengthInVehiclesSum="13" jamLengthInMetersSum="65.00" meanHaltingDuration="14.00" maxHaltingDuration="14.00" haltingDurationSum="14.00" meanIntervalHaltingDuration="14.00" maxIntervalHaltingDuration="14.00" intervalHaltingDurationSum="14.00" startedHalts="1.00" meanVehicleNumber="0.33" maxVehicleNumber="1" />
   <interval begin="120.00" end="180.00" id="e2det_EC_4" sampledSeconds="0.91" nVehEntered="1" nVehLeft="0" nVehSeen="1" meanSpeed="13.50" meanTimeLoss="0.05" meanOccupancy="0.16" maxOccupancy="9.56" meanMaxJamLengthInVehicles="0.00" meanMaxJamLengthInMeters="0.00" maxJamLengthInVehicles="0" maxJamLengthInMeters="0.00" jamLengthInVehiclesSum="0" jamLengthInMetersSum="0.00" meanHaltingDuration="0.00" maxHaltingDuration="0.00" haltingDurationSum="0.00" meanIntervalHaltingDuration="0.00" maxIntervalHaltingDuration="0.00" intervalHaltingDurationSum="0.00" startedHalts="0.00" meanVehicleNumber="0.02" maxVehicleNumber="1" />
   <interval begin="120.00" end="180.00" id="e2det_NC_1" sampledSeconds="9.16" nVehEntered="0" nVehLeft="1" nVehSeen="1" meanSpeed="5.30" meanTimeLoss="0.41" meanOccupancy="0.46" maxOccupancy="3.25" meanMaxJamLengthInVehicles="0.00" meanMaxJamLengthInMeters="0.00" maxJamLengthInVehicles="0" maxJamLengthInMeters="0.00" jamLengthInVehiclesSum="0" jamLengthInMetersSum="0.00" meanHaltingDuration="0.00" maxHaltingDuration="0.00" haltingDurationSum="0.00" meanIntervalHaltingDuration="0.00" maxIntervalHaltingDuration="0.00" intervalHaltingDurationSum="0.00" startedHalts="0.00" meanVehicleNumber="0.17" maxVehicleNumber="1" />
   <interval begin="120.00" end="180.00" id="e2det_NC_2" sampledSeconds="0.00" nVehEntered="0" nVehLeft="0" nVehSeen="0" meanSpeed="-1.00" meanTimeLoss="-1.00" meanOccupancy="0.00" maxOccupancy="0.00" meanMaxJamLengthInVehicles="0.00" meanMaxJamLengthInMeters="0.00" maxJamLengthInVehicles="0" maxJamLengthInMeters="0.00" jamLengthInVehiclesSum="0" jamLengthInMetersSum="0.00" meanHaltingDuration="0.00" maxHaltingDuration="0.00" haltingDurationSum="0.00" meanIntervalHaltingDuration="0.00" maxIntervalHaltingDuration="0.00" intervalHaltingDurationSum="0.00" startedHalts="0.00" meanVehicleNumber="0.00" maxVehicleNumber="0" />
   <interval begin="120.00" end="180.00" id="e2det_NC_3" sampledSeconds="17.46" nVehEntered="2" nVehLeft="2" nVehSeen="2" meanSpeed="6.22" meanTimeLoss="5.12" meanOccupancy="2.73" maxOccupancy="20.28" meanMaxJamLengthInVehicles="0.03" meanMaxJamLengthInMeters="0.17" maxJamLengthInVehicles="1" maxJamLengthInMeters="5.00" jamLengthInVehiclesSum="2" jamLengthInMetersSum="10.00" meanHaltingDuration="3.00" maxHaltingDuration="3.00" haltingDurationSum="3.00" meanIntervalHaltingDuration="3.00" maxIntervalHaltingDuration="3.00" intervalHaltingDurationSum="3.00" startedHalts="1.00" meanVehicleNumber="0.32" maxVehicleNumber="2" />
   <interval begin="120.00" end="180.00" id="e2det_NC_4" sampledSeconds="3.76" nVehEntered="1" nVehLeft="1" nVehSeen="1" meanSpeed="14.45" meanTimeLoss="0.33" meanOccupancy="0.66" maxOccupancy="10.14" meanMaxJamLengthInVehicles="0.00" meanMaxJamLengthInMeters="0.00" maxJamLengthInVehicles="0" maxJamLengthInMeters="0.00" jamLengthInVehiclesSum="0" jamLengthInMetersSum="0.00" meanHaltingDuration="0.00" maxHaltingDuration="0.00" haltingDurationSum="0.00" meanIntervalHaltingDuration="0.00" maxIntervalHaltingDuration="0.00" intervalHaltingDurationSum="0.00" startedHalts="0.00" meanVehicleNumber="0.08" maxVehicleNumber="1" />
   <interval begin="120.00" end="180.00" id="e2det_SC_1" sampledSeconds="32.31" nVehEntered="3" nVehLeft="3" nVehSeen="3" meanSpeed="5.00" meanTimeLoss="1.07" meanOccupancy="1.61" maxOccupancy="6.12" meanMaxJamLengthInVehicles="0.00" meanMaxJamLengthInMeters="0.00" maxJamLengthInVehicles="0" maxJamLengthInMeters="0.00" jamLengthInVehiclesSum="0" jamLengthInMetersSum="0.00" meanHaltingDuration="0.00" maxHaltingDuration="0.00" haltingDurationSum="0.00" meanIntervalHaltingDuration="0.00" maxIntervalHaltingDuration="0.00" intervalHaltingDurationSum="0.00" startedHalts="0.00" meanVehicleNumber="0.60" maxVehicleNumber="2" />
   <interval begin="120.00" end="180.00" id="e2det_SC_2" sampledSeconds="37.52" nVehEntered="2" nVehLeft="2" nVehSeen="2" meanSpeed="3.05" meanTimeLoss="14.47" meanOccupancy="5.66" maxOccupancy="19.12" meanMaxJamLengthInVehicles="0.33" meanMaxJamLengthInMeters="1.71" maxJamLengthInVehicles="2" maxJamLengthInMeters="12.53" jamLengthInVehiclesSum="20" jamLengthInMetersSum="102.53" meanHaltingDuration="11.00" maxHaltingDuration="18.00" haltingDurationSum="22.00" meanIntervalHaltingDuration="11.00" maxIntervalHaltingDuration="18.00" intervalHaltingDurationSum="22.00" startedHalts="2.00" meanVehicleNumber="0.65" maxVehicleNumber="2" />
   <interval begin="120.00" end="180.00" id="e2det_SC_3" sampledSeconds="16.02" nVehEntered="2" nVehLeft="2" nVehSeen="2" meanSpeed="7.16" meanTimeLoss="3.50" meanOccupancy="2.34" maxOccupancy="9.56" meanMaxJamLengthInVehicles="0.05" meanMaxJamLengthInMeters="0.25" maxJamLengthInVehicles="1" maxJamLengthInMeters="5.00" jamLengthInVehiclesSum="3" jamLengthInMetersSum="15.00" meanHaltingDuration="4.00" maxHaltingDuration="4.00" haltingDurationSum="4.00" meanIntervalHaltingDuration="4.00" maxIntervalHaltingDuration="4.00" intervalHaltingDurationSum="4.00" startedHalts="1.00" meanVehicleNumber="0.30" maxVehicleNumber="1" />
   <interval begin="120.00" end="180.00" id="e2det_SC_4" sampledSeconds="53.58" nVehEntered="6" nVehLeft="5" nVehSeen="6" meanSpeed="5.54" meanTimeLoss="5.10" meanOccupancy="8.12" maxOccupancy="19.12" meanMaxJamLengthInVehicles="0.35" meanMaxJamLengthInMeters="2.05" maxJamLengthInVehicles="2" maxJamLengthInMeters="12.70" jamLengthInVehiclesSum="21" jamLengthInMetersSum="122.72" meanHaltingDuration="11.50" maxHaltingDuration="14.00" haltingDurationSum="23.00" meanIntervalHaltingDuration="11.50" maxIntervalHaltingDuration="14.00" intervalHaltingDurationSum="23.00" startedHalts="2.00" meanVehicleNumber="0.98" maxVehicleNumber="2" />
   <interval begin="120.00" end="180.00" id="e2det_WC_1" sampledSeconds="133.23" nVehEntered="4" nVehLeft="3" nVehSeen="6" meanSpeed="1.48" meanTimeLoss="16.30" meanOccupancy="7.14" maxOccupancy="9.74" meanMaxJamLengthInVehicles="1.52" meanMaxJamLengthInMeters="2.86" maxJamLengthInVehicles="3" maxJamLengthInMeters="5.90" jamLengthInVehiclesSum="91" jamLengthInMetersSum="171.57" meanHaltingDuration="24.00" maxHaltingDuration="32.00" haltingDurationSum="120.00" meanIntervalHaltingDuration="18.80" maxIntervalHaltingDuration="24.00" intervalHaltingDurationSum="94.00" startedHalts="3.00" meanVehicleNumber="2.27" maxVehicleNumber="3" />
   <interval begin="120.00" end="180.00" id="e2det_WC_2" sampledSeconds="44.73" nVehEntered="2" nVehLeft="2" nVehSeen="3" meanSpeed="2.42" meanTimeLoss="12.37" meanOccupancy="7.15" maxOccupancy="20.28" meanMaxJamLengthInVehicles="0.47" meanMaxJamLengthInMeters="2.33" maxJamLengthInVehicles="1" maxJamLengthInMeters="5.00" jamLengthInVehiclesSum="28" jamLengthInMetersSum="140.00" meanHaltingDuration="16.67" maxHaltingDuration="40.00" haltingDurationSum="50.00" meanIntervalHaltingDuration="10.00" maxIntervalHaltingDuration="20.00" intervalHaltingDurationSum="30.00" startedHalts="2.00" meanVehicleNumber="0.77" maxVehicleNumber="2" />