<?xml version="1.0" encoding="UTF-8"?>

<!-- generated on Tue Oct 12 10:42:51 2021 by Eclipse SUMO sumo Version v1_7_0+1095-7111e26d53
<configuration xmlns:xsi="http://www.w3.org/2001/XMLSchema-instance" xsi:noNamespaceSchemaLocation="http://sumo.dlr.de/xsd/sumoConfiguration.xsd">

    <input>
        <net-file value="network3_double.net.xml"/>
        <route-files value="double_routes.rou.xml"/>
        <additional-files value="tlsOffsets.add.xml"/>
    </input>

    <output>
        <tripinfo-output value="doublee_tripinfo.xml"/>
    </output>

</configuration>
-->

<tripinfos xmlns:xsi="http://www.w3.org/2001/XMLSchema-instance" xsi:noNamespaceSchemaLocation="http://sumo.dlr.de/xsd/tripinfo_file.xsd">
    <tripinfo id="2" depart="20.00" departLane="rightNN_1" departPos="5.10" departSpeed="0.00" departDelay="0.00" arrival="56.00" arrivalLane="rightCW_1" arrivalPos="186.60" arrivalSpeed="12.92" duration="36.00" routeLength="392.70" waitingTime="0.00" waitingCount="0" stopTime="0.00" timeLoss="5.96" rerouteNo="0" devices="tripinfo_2" vType="DEFAULT_VEHTYPE" speedFactor="1.01" vaporized=""/>
    <tripinfo id="4" depart="40.00" departLane="leftWC_1" departPos="5.10" departSpeed="0.00" departDelay="0.00" arrival="62.00" arrivalLane="leftCE_1" arrivalPos="186.60" arrivalSpeed="12.86" duration="22.00" routeLength="241.14" waitingTime="0.00" waitingCount="0" stopTime="0.00" timeLoss="3.63" rerouteNo="0" devices="tripinfo_4" vType="DEFAULT_VEHTYPE" speedFactor="1.03" vaporized=""/>
    <tripinfo id="6" depart="60.00" departLane="leftCW_1" departPos="5.10" departSpeed="0.00" departDelay="0.00" arrival="77.00" arrivalLane="leftCW_1" arrivalPos="186.35" arrivalSpeed="12.74" duration="17.00" routeLength="181.25" waitingTime="0.00" waitingCount="0" stopTime="0.00" timeLoss="3.74" rerouteNo="0" devices="tripinfo_6" vType="DEFAULT_VEHTYPE" speedFactor="1.05" vaporized=""/>
    <tripinfo id="1" depart="10.00" departLane="leftNN_1" departPos="5.10" departSpeed="0.00" departDelay="0.00" arrival="120.00" arrivalLane="leftEC_1" arrivalPos="32.60" arrivalSpeed="12.28" duration="110.00" routeLength="576.70" waitingTime="48.00" waitingCount="1" stopTime="0.00" timeLoss="61.49" rerouteNo="0" devices="tripinfo_1" vType="DEFAULT_VEHTYPE" speedFactor="0.94" vaporized=""/>
    <tripinfo id="10" depart="100.00" departLane="rightSC_1" departPos="5.10" departSpeed="0.00" departDelay="0.00" arrival="123.00" arrivalLane="rightCW_1" arrivalPos="186.60" arrivalSpeed="14.01" duration="23.00" routeLength="230.63" waitingTime="0.00" waitingCount="0" stopTime="0.00" timeLoss="5.94" rerouteNo="0" devices="tripinfo_10" vType="DEFAULT_VEHTYPE" speedFactor="1.09" vaporized=""/>
    <tripinfo id="3" depart="30.00" departLane="rightWC_1" departPos="5.10" departSpeed="0.00" departDelay="0.00" arrival="141.00" arrivalLane="leftCN_1" arrivalPos="186.60" arrivalSpeed="13.79" duration="111.00" routeLength="631.28" waitingTime="52.00" waitingCount="2" stopTime="0.00" timeLoss="66.38" rerouteNo="0" devices="tripinfo_3" vType="DEFAULT_VEHTYPE" speedFactor="1.08" vaporized=""/>
    <tripinfo id="0" depart="0.00" departLane="rightEE_1" departPos="5.10" departSpeed="0.00" departDelay="0.00" arrival="145.00" arrivalLane="leftCE_1" arrivalPos="186.60" arrivalSpeed="13.69" duration="145.00" routeLength="773.76" waitingTime="70.00" waitingCount="3" stopTime="0.00" timeLoss="88.16" rerouteNo="0" devices="tripinfo_0" vType="DEFAULT_VEHTYPE" speedFactor="1.06" vaporized=""/>
    <tripinfo id="13" depart="130.00" departLane="leftEC_1" departPos="5.10" departSpeed="0.00" departDelay="0.00" arrival="152.00" arrivalLane="leftCN_1" arrivalPos="186.60" arrivalSpeed="14.81" duration="22.00" routeLength="238.30" waitingTime="0.00" waitingCount="0" stopTime="0.00" timeLoss="4.96" rerouteNo="0" devices="tripinfo_13" vType="DEFAULT_VEHTYPE" speedFactor="1.12" vaporized=""/>
    <tripinfo id="9" depart="90.00" departLane="rightSC_1" departPos="5.10" departSpeed="0.00" departDelay="0.00" arrival="153.00" arrivalLane="leftCE_1" arrivalPos="186.60" arrivalSpeed="10.49" duration="63.00" routeLength="638.93" waitingTime="0.00" waitingCount="0" stopTime="0.00" timeLoss="6.08" rerouteNo="0" devices="tripinfo_9" vType="DEFAULT_VEHTYPE" speedFactor="0.86" vaporized=""/>
    <tripinfo id="7" depart="70.00" departLane="rightEE_1" departPos="5.10" departSpeed="0.00" departDelay="0.00" arrival="158.00" arrivalLane="rightCE_1" arrivalPos="186.55" arrivalSpeed="11.22" duration="88.00" routeLength="373.07" waitingTime="45.00" waitingCount="2" stopTime="0.00" timeLoss="55.51" rerouteNo="0" devices="tripinfo_7" vType="DEFAULT_VEHTYPE" speedFactor="0.89" vaporized=""/>
    <tripinfo id="5" depart="50.00" departLane="leftNC_1" departPos="5.10" departSpeed="0.00" departDelay="0.00" arrival="163.00" arrivalLane="rightCE_1" arrivalPos="186.55" arrivalSpeed="10.55" duration="113.00" routeLength="616.52" waitingTime="39.00" waitingCount="3" stopTime="0.00" timeLoss="55.81" rerouteNo="0" devices="tripinfo_5" vType="DEFAULT_VEHTYPE" speedFactor="0.83" vaporized=""/>
    <tripinfo id="8" depart="80.00" departLane="leftNC_1" departPos="5.10" departSpeed="0.00" departDelay="0.00" arrival="165.00" arrivalLane="rightCN_1" arrivalPos="186.60" arrivalSpeed="12.35" duration="85.00" routeLength="636.09" waitingTime="16.00" waitingCount="2" stopTime="0.00" timeLoss="31.97" rerouteNo="0" devices="tripinfo_8" vType="DEFAULT_VEHTYPE" speedFactor="0.94" vaporized=""/>
    <tripinfo id="11" depart="110.00" departLane="leftSS_1" departPos="5.10" departSpeed="0.00" departDelay="0.00" arrival="187.00" arrivalLane="leftCS_1" arrivalPos="186.60" arrivalSpeed="12.39" duration="77.00" routeLength="373.17" waitingTime="37.00" waitingCount="1" stopTime="0.00" timeLoss="48.24" rerouteNo="0" devices="tripinfo_11" vType="DEFAULT_VEHTYPE" speedFactor="1.03" vaporized=""/>
    <tripinfo id="14" depart="140.00" departLane="rightSS_1" departPos="5.10" departSpeed="0.00" departDelay="0.00" arrival="199.00" arrivalLane="rightCN_1" arrivalPos="186.60" arrivalSpeed="12.95" duration="59.00" routeLength="395.54" waitingTime="18.00" waitingCount="1" stopTime="0.00" timeLoss="28.93" rerouteNo="0" devices="tripinfo_14" vType="DEFAULT_VEHTYPE" speedFactor="0.99" vaporized=""/>
    <tripinfo id="18" depart="180.00" departLane="rightSC_1" departPos="5.10" departSpeed="0.00" departDelay="0.00" arrival="204.00" arrivalLane="rightCS_1" arrivalPos="186.60" arrivalSpeed="11.18" duration="24.00" routeLength="218.77" waitingTime="0.00" waitingCount="0" stopTime="0.00" timeLoss="5.39" rerouteNo="0" devices="tripinfo_18" vType="DEFAULT_VEHTYPE" speedFactor="0.94" vaporized=""/>
    <tripinfo id="19" depart="190.00" departLane="rightSS_1" departPos="5.10" departSpeed="0.00" departDelay="0.00" arrival="221.00" arrivalLane="rightCN_1" arrivalPos="186.60" arrivalSpeed="15.27" duration="31.00" routeLength="395.54" waitingTime="0.00" waitingCount="0" stopTime="0.00" timeLoss="4.76" rerouteNo="0" devices="tripinfo_19" vType="DEFAULT_VEHTYPE" speedFactor="1.16" vaporized=""/>
    <tripinfo id="22" depart="220.00" departLane="leftEC_1" departPos="5.10" departSpeed="0.00" departDelay="0.00" arrival="226.00" arrivalLane="leftEC_1" arrivalPos="32.60" arrivalSpeed="10.07" duration="6.00" routeLength="27.50" waitingTime="0.00" waitingCount="0" stopTime="0.00" timeLoss="3.17" rerouteNo="0" devices="tripinfo_22" vType="DEFAULT_VEHTYPE" speedFactor="0.98" vaporized=""/>
    <tripinfo id="21" depart="210.00" departLane="leftNN_1" departPos="5.10" departSpeed="0.00" departDelay="0.00" arrival="228.00" arrivalLane="leftNC_1" arrivalPos="32.60" arrivalSpeed="12.23" duration="18.00" routeLength="181.90" waitingTime="0.00" waitingCount="0" stopTime="0.00" timeLoss="3.67" rerouteNo="0" devices="tripinfo_21" vType="DEFAULT_VEHTYPE" speedFactor="1.01" vaporized=""/>
    <tripinfo id="17" depart="170.00" departLane="leftSS_1" departPos="5.10" departSpeed="0.00" departDelay="0.00" arrival="245.00" arrivalLane="rightCE_1" arrivalPos="186.55" arrivalSpeed="12.26" duration="75.00" routeLength="763.25" waitingTime="0.00" waitingCount="0" stopTime="0.00" timeLoss="11.44" rerouteNo="0" devices="tripinfo_17" vType="DEFAULT_VEHTYPE" speedFactor="0.94" vaporized=""/>
    <tripinfo id="12" depart="120.00" departLane="rightWW_1" departPos="5.10" departSpeed="0.00" departDelay="0.00" arrival="250.00" arrivalLane="leftSC_1" arrivalPos="32.60" arrivalSpeed="13.42" duration="130.00" routeLength="985.01" waitingTime="43.00" waitingCount="1" stopTime="0.00" timeLoss="57.47" rerouteNo="0" devices="tripinfo_12" vType="DEFAULT_VEHTYPE" speedFactor="1.05" vaporized=""/>
    <tripinfo id="20" depart="200.00" departLane="rightNC_1" departPos="5.10" departSpeed="0.00" departDelay="0.00" arrival="254.00" arrivalLane="leftCE_1" arrivalPos="186.60" arrivalSpeed="13.27" duration="54.00" routeLength="631.28" waitingTime="0.00" waitingCount="0" stopTime="0.00" timeLoss="6.45" rerouteNo="0" devices="tripinfo_20" vType="DEFAULT_VEHTYPE" speedFactor="1.02" vaporized=""/>
    <tripinfo id="15" depart="150.00" departLane="rightSC_1" departPos="5.10" departSpeed="0.00" departDelay="0.00" arrival="257.00" arrivalLane="rightEC_1" arrivalPos="32.60" arrivalSpeed="11.86" duration="107.00" routeLength="803.57" waitingTime="22.00" waitingCount="1" stopTime="0.00" timeLoss="39.80" rerouteNo="0" devices="tripinfo_15" vType="DEFAULT_VEHTYPE" speedFactor="0.93" vaporized=""/>
    <tripinfo id="23" depart="230.00" departLane="leftEC_1" departPos="5.10" departSpeed="0.00" departDelay="0.00" arrival="281.00" arrivalLane="leftNC_1" arrivalPos="32.60" arrivalSpeed="11.16" duration="51.00" routeLength="429.97" waitingTime="0.00" waitingCount="0" stopTime="0.00" timeLoss="12.71" rerouteNo="0" devices="tripinfo_23" vType="DEFAULT_VEHTYPE" speedFactor="0.89" vaporized=""/>
    <tripinfo id="25" depart="250.00" departLane="leftSS_1" departPos="5.10" departSpeed="0.00" departDelay="0.00" arrival="289.00" arrivalLane="leftCW_1" arrivalPos="186.35" arrivalSpeed="11.40" duration="39.00" routeLength="384.78" waitingTime="0.00" waitingCount="0" stopTime="0.00" timeLoss="5.07" rerouteNo="0" devices="tripinfo_25" vType="DEFAULT_VEHTYPE" speedFactor="0.87" vaporized=""/>
    <tripinfo id="16" depart="160.00" departLane="rightCE_1" departPos="5.10" departSpeed="0.00" departDelay="0.00" arrival="294.00" arrivalLane="rightWC_1" arrivalPos="32.60" arrivalSpeed="11.44" duration="134.00" routeLength="1152.08" waitingTime="16.00" waitingCount="1" stopTime="0.00" timeLoss="33.87" rerouteNo="0" devices="tripinfo_16" vType="DEFAULT_VEHTYPE" speedFactor="0.88" vaporized=""/>
    <tripinfo id="28" depart="281.00" departLane="leftNC_1" departPos="5.10" departSpeed="0.00" departDelay="1.00" arrival="322.00" arrivalLane="rightEC_1" arrivalPos="32.60" arrivalSpeed="9.74" duration="41.00" routeLength="425.30" waitingTime="0.00" waitingCount="0" stopTime="0.00" timeLoss="12.17" rerouteNo="0" devices="tripinfo_28" vType="DEFAULT_VEHTYPE" speedFactor="1.13" vaporized=""/>
    <tripinfo id="31" depart="310.00" departLane="rightEC_1" departPos="5.10" departSpeed="0.00" departDelay="0.00" arrival="331.00" arrivalLane="rightCW_1" arrivalPos="186.60" arrivalSpeed="14.11" duration="21.00" routeLength="241.13" waitingTime="0.00" waitingCount="0" stopTime="0.00" timeLoss="4.54" rerouteNo="0" devices="tripinfo_31" vType="DEFAULT_VEHTYPE" speedFactor="1.15" vaporized=""/>
    <tripinfo id="27" depart="270.00" departLane="rightEE_1" departPos="5.10" departSpeed="0.00" departDelay="0.00" arrival="335.00" arrivalLane="rightCN_1" arrivalPos="186.60" arrivalSpeed="11.33" duration="65.00" routeLength="392.64" waitingTime="23.00" waitingCount="1" stopTime="0.00" timeLoss="33.13" rerouteNo="0" devices="tripinfo_27" vType="DEFAULT_VEHTYPE" speedFactor="0.95" vaporized=""/>
    <tripinfo id="30" depart="300.00" departLane="rightWW_1" departPos="5.10" departSpeed="0.00" departDelay="0.00" arrival="344.00" arrivalLane="rightCS_1" arrivalPos="186.60" arrivalSpeed="3.78" duration="44.00" routeLength="392.70" waitingTime="3.00" waitingCount="1" stopTime="0.00" timeLoss="18.38" rerouteNo="0" devices="tripinfo_30" vType="DEFAULT_VEHTYPE" speedFactor="1.18" vaporized=""/>
    <tripinfo id="29" depart="290.00" departLane="leftEE_1" departPos="5.10" departSpeed="0.00" departDelay="0.00" arrival="349.00" arrivalLane="leftSC_1" arrivalPos="32.60" arrivalSpeed="11.40" duration="59.00" routeLength="576.70" waitingTime="0.00" waitingCount="0" stopTime="0.00" timeLoss="10.59" rerouteNo="0" devices="tripinfo_29" vType="DEFAULT_VEHTYPE" speedFactor="0.93" vaporized=""/>
    <tripinfo id="24" depart="241.00" departLane="rightEE_1" departPos="5.10" departSpeed="0.00" departDelay="1.00" arrival="356.00" arrivalLane="leftSC_1" arrivalPos="32.60" arrivalSpeed="9.81" duration="115.00" routeLength="962.59" waitingTime="4.00" waitingCount="1" stopTime="0.00" timeLoss="24.26" rerouteNo="0" devices="tripinfo_24" vType="DEFAULT_VEHTYPE" speedFactor="0.83" vaporized=""/>
    <tripinfo id="26" depart="265.00" departLane="leftNN_1" departPos="5.10" departSpeed="0.00" departDelay="5.00" arrival="360.00" arrivalLane="rightSC_1" arrivalPos="32.60" arrivalSpeed="11.45" duration="95.00" routeLength="974.50" waitingTime="0.00" waitingCount="0" stopTime="0.00" timeLoss="12.47" rerouteNo="0" devices="tripinfo_26" vType="DEFAULT_VEHTYPE" speedFactor="0.92" vaporized=""/>
    <tripinfo id="33" depart="330.00" departLane="leftNN_1" departPos="5.10" departSpeed="0.00" departDelay="0.00" arrival="365.00" arrivalLane="leftCE_1" arrivalPos="186.60" arrivalSpeed="14.44" duration="35.00" routeLength="385.03" waitingTime="0.00" waitingCount="0" stopTime="0.00" timeLoss="9.61" rerouteNo="0" devices="tripinfo_33" vType="DEFAULT_VEHTYPE" speedFactor="1.17" vaporized=""/>
    <tripinfo id="34" depart="340.00" departLane="leftSC_1" departPos="5.10" departSpeed="0.00" departDelay="0.00" arrival="387.00" arrivalLane="leftEC_1" arrivalPos="32.60" arrivalSpeed="12.75" duration="47.00" routeLength="429.97" waitingTime="0.00" waitingCount="0" stopTime="0.00" timeLoss="13.25" rerouteNo="0" devices="tripinfo_34" vType="DEFAULT_VEHTYPE" speedFactor="0.99" vaporized=""/>
    <tripinfo id="32" depart="320.00" departLane="rightSS_1" departPos="5.10" departSpeed="0.00" departDelay="0.00" arrival="429.00" arrivalLane="rightEC_1" arrivalPos="32.60" arrivalSpeed="12.08" duration="109.00" routeLength="957.97" waitingTime="19.00" waitingCount="1" stopTime="0.00" timeLoss="34.76" rerouteNo="0" devices="tripinfo_32" vType="DEFAULT_VEHTYPE" speedFactor="1.01" vaporized=""/>
    <tripinfo id="38" depart="380.00" departLane="rightWC_1" departPos="5.10" departSpeed="0.00" departDelay="0.00" arrival="433.00" arrivalLane="leftWW_1" arrivalPos="145.75" arrivalSpeed="14.60" duration="53.00" routeLength="387.14" waitingTime="16.00" waitingCount="1" stopTime="0.00" timeLoss="26.55" rerouteNo="0" devices="tripinfo_38" vType="DEFAULT_VEHTYPE" speedFactor="1.10" vaporized=""/>
    <tripinfo id="37" depart="370.00" departLane="rightEE_1" departPos="5.10" departSpeed="0.00" departDelay="0.00" arrival="439.00" arrivalLane="leftWC_1" arrivalPos="32.60" arrivalSpeed="14.78" duration="69.00" routeLength="560.12" waitingTime="19.00" waitingCount="2" stopTime="0.00" timeLoss="32.07" rerouteNo="0" devices="tripinfo_37" vType="DEFAULT_VEHTYPE" speedFactor="1.18" vaporized=""/>
    <tripinfo id="35" depart="350.00" departLane="leftNC_1" departPos="5.10" departSpeed="0.00" departDelay="0.00" arrival="441.00" arrivalLane="rightSC_1" arrivalPos="32.60" arrivalSpeed="13.35" duration="91.00" routeLength="820.10" waitingTime="11.00" waitingCount="1" stopTime="0.00" timeLoss="28.79" rerouteNo="0" devices="tripinfo_35" vType="DEFAULT_VEHTYPE" speedFactor="1.02" vaporized=""/>
    <tripinfo id="42" depart="420.00" departLane="leftWC_1" departPos="5.10" departSpeed="0.00" departDelay="0.00" arrival="444.00" arrivalLane="leftCW_1" arrivalPos="186.35" arrivalSpeed="13.47" duration="24.00" routeLength="218.53" waitingTime="0.00" waitingCount="0" stopTime="0.00" timeLoss="7.06" rerouteNo="0" devices="tripinfo_42" vType="DEFAULT_VEHTYPE" speedFactor="1.09" vaporized=""/>
    <tripinfo id="36" depart="360.00" departLane="rightSS_1" departPos="5.10" departSpeed="0.00" departDelay="0.00" arrival="448.00" arrivalLane="leftNC_1" arrivalPos="32.60" arrivalSpeed="12.48" duration="88.00" routeLength="974.50" waitingTime="0.00" waitingCount="0" stopTime="0.00" timeLoss="11.08" rerouteNo="0" devices="tripinfo_36" vType="DEFAULT_VEHTYPE" speedFactor="0.97" vaporized=""/>
    <tripinfo id="41" depart="410.00" departLane="rightEC_1" departPos="5.10" departSpeed="0.00" departDelay="0.00" arrival="453.00" arrivalLane="rightSC_1" arrivalPos="32.60" arrivalSpeed="12.21" duration="43.00" routeLength="422.30" waitingTime="0.00" waitingCount="0" stopTime="0.00" timeLoss="8.39" rerouteNo="0" devices="tripinfo_41" vType="DEFAULT_VEHTYPE" speedFactor="0.96" vaporized=""/>
    <tripinfo id="39" depart="390.00" departLane="leftNN_1" departPos="5.10" departSpeed="0.00" departDelay="0.00" arrival="492.00" arrivalLane="leftEC_1" arrivalPos="32.60" arrivalSpeed="4.08" duration="102.00" routeLength="576.70" waitingTime="30.00" waitingCount="3" stopTime="0.00" timeLoss="52.68" rerouteNo="0" devices="tripinfo_39" vType="DEFAULT_VEHTYPE" speedFactor="0.90" vaporized=""/>
    <tripinfo id="46" depart="460.00" departLane="rightSC_1" departPos="5.10" departSpeed="0.00" departDelay="0.00" arrival="498.00" arrivalLane="leftWC_1" arrivalPos="32.60" arrivalSpeed="12.57" duration="38.00" routeLength="425.29" waitingTime="0.00" waitingCount="0" stopTime="0.00" timeLoss="5.01" rerouteNo="0" devices="tripinfo_46" vType="DEFAULT_VEHTYPE" speedFactor="1.00" vaporized=""/>
    <tripinfo id="44" depart="440.00" departLane="leftEC_1" departPos="5.10" departSpeed="0.00" departDelay="0.00" arrival="507.00" arrivalLane="leftCE_1" arrivalPos="186.60" arrivalSpeed="13.38" duration="67.00" routeLength="218.77" waitingTime="38.00" waitingCount="2" stopTime="0.00" timeLoss="49.94" rerouteNo="0" devices="tripinfo_44" vType="DEFAULT_VEHTYPE" speedFactor="1.04" vaporized=""/>
    <tripinfo id="43" depart="430.00" departLane="rightWW_1" departPos="5.10" departSpeed="0.00" departDelay="0.00" arrival="514.00" arrivalLane="rightCE_1" arrivalPos="186.55" arrivalSpeed="12.89" duration="84.00" routeLength="395.49" waitingTime="45.00" waitingCount="1" stopTime="0.00" timeLoss="55.29" rerouteNo="0" devices="tripinfo_43" vType="DEFAULT_VEHTYPE" speedFactor="1.04" vaporized=""/>
    <tripinfo id="48" depart="480.00" departLane="rightWW_1" departPos="5.10" departSpeed="0.00" departDelay="0.00" arrival="519.00" arrivalLane="rightCE_1" arrivalPos="186.55" arrivalSpeed="11.21" duration="39.00" routeLength="395.49" waitingTime="0.00" waitingCount="0" stopTime="0.00" timeLoss="4.47" rerouteNo="0" devices="tripinfo_48" vType="DEFAULT_VEHTYPE" speedFactor="0.88" vaporized=""/>
    <tripinfo id="40" depart="400.00" departLane="rightEC_1" departPos="5.10" departSpeed="0.00" departDelay="0.00" arrival="521.00" arrivalLane="leftEC_1" arrivalPos="32.60" arrivalSpeed="13.23" duration="121.00" routeLength="811.08" waitingTime="39.00" waitingCount="2" stopTime="0.00" timeLoss="59.68" rerouteNo="0" devices="tripinfo_40" vType="DEFAULT_VEHTYPE" speedFactor="1.03" vaporized=""/>
    <tripinfo id="47" depart="470.00" departLane="leftEC_1" departPos="5.10" departSpeed="0.00" departDelay="0.00" arrival="527.00" arrivalLane="leftSC_1" arrivalPos="32.60" arrivalSpeed="11.35" duration="57.00" routeLength="422.30" waitingTime="9.00" waitingCount="1" stopTime="0.00" timeLoss="20.12" rerouteNo="0" devices="tripinfo_47" vType="DEFAULT_VEHTYPE" speedFactor="0.90" vaporized=""/>
    <tripinfo id="45" depart="450.00" departLane="leftEC_1" departPos="5.10" departSpeed="0.00" departDelay="0.00" arrival="532.00" arrivalLane="rightCS_1" arrivalPos="186.60" arrivalSpeed="13.70" duration="82.00" routeLength="631.27" waitingTime="26.00" waitingCount="1" stopTime="0.00" timeLoss="37.31" rerouteNo="0" devices="tripinfo_45" vType="DEFAULT_VEHTYPE" speedFactor="1.09" vaporized=""/>
    <tripinfo id="49" depart="490.00" departLane="rightWW_1" departPos="5.10" departSpeed="0.00" departDelay="0.00" arrival="553.00" arrivalLane="rightNC_1" arrivalPos="32.60" arrivalSpeed="10.81" duration="63.00" routeLength="576.70" waitingTime="0.00" waitingCount="0" stopTime="0.00" timeLoss="9.30" rerouteNo="0" devices="tripinfo_49" vType="DEFAULT_VEHTYPE" speedFactor="0.85" vaporized=""/>
    <tripinfo id="51" depart="510.00" departLane="rightNC_1" departPos="5.10" departSpeed="0.00" departDelay="0.00" arrival="556.00" arrivalLane="rightCE_1" arrivalPos="186.55" arrivalSpeed="15.39" duration="46.00" routeLength="230.59" waitingTime="23.00" waitingCount="1" stopTime="0.00" timeLoss="30.67" rerouteNo="0" devices="tripinfo_51" vType="DEFAULT_VEHTYPE" speedFactor="1.17" vaporized=""/>
    <tripinfo id="50" depart="500.00" departLane="leftCW_1" departPos="5.10" departSpeed="0.00" departDelay="0.00" arrival="606.00" arrivalLane="rightCW_1" arrivalPos="186.60" arrivalSpeed="10.55" duration="106.00" routeLength="582.13" waitingTime="44.00" waitingCount="1" stopTime="0.00" timeLoss="54.70" rerouteNo="0" devices="tripinfo_50" vType="DEFAULT_VEHTYPE" speedFactor="0.85" vaporized=""/>
    <tripinfo id="52" depart="520.00" departLane="leftNN_1" departPos="5.10" departSpeed="0.00" departDelay="0.00" arrival="606.00" arrivalLane="rightCS_1" arrivalPos="186.60" arrivalSpeed="13.12" duration="86.00" routeLength="782.83" waitingTime="14.00" waitingCount="1" stopTime="0.00" timeLoss="26.46" rerouteNo="0" devices="tripinfo_52" vType="DEFAULT_VEHTYPE" speedFactor="1.02" vaporized=""/>
    <tripinfo id="56" depart="560.00" departLane="rightCE_1" departPos="5.10" departSpeed="0.00" departDelay="0.00" arrival="616.00" arrivalLane="leftCW_1" arrivalPos="186.35" arrivalSpeed="11.83" duration="56.00" routeLength="559.53" waitingTime="0.00" waitingCount="0" stopTime="0.00" timeLoss="8.14" rerouteNo="0" devices="tripinfo_56" vType="DEFAULT_VEHTYPE" speedFactor="0.90" vaporized=""/>
    <tripinfo id="57" depart="570.00" departLane="rightWC_1" departPos="5.10" departSpeed="0.00" departDelay="0.00" arrival="619.00" arrivalLane="rightNC_1" arrivalPos="32.60" arrivalSpeed="14.07" duration="49.00" routeLength="422.30" waitingTime="7.00" waitingCount="1" stopTime="0.00" timeLoss="19.39" rerouteNo="0" devices="tripinfo_57" vType="DEFAULT_VEHTYPE" speedFactor="1.14" vaporized=""/>
    <tripinfo id="53" depart="530.00" departLane="leftEE_1" departPos="5.10" departSpeed="0.00" departDelay="0.00" arrival="637.00" arrivalLane="leftWC_1" arrivalPos="32.60" arrivalSpeed="14.47" duration="107.00" routeLength="960.81" waitingTime="23.00" waitingCount="1" stopTime="0.00" timeLoss="39.99" rerouteNo="0" devices="tripinfo_53" vType="DEFAULT_VEHTYPE" speedFactor="1.10" vaporized=""/>
    <tripinfo id="55" depart="550.00" departLane="rightSS_1" departPos="5.10" departSpeed="0.00" departDelay="0.00" arrival="637.00" arrivalLane="leftEC_1" arrivalPos="32.60" arrivalSpeed="12.12" duration="87.00" routeLength="985.00" waitingTime="0.00" waitingCount="0" stopTime="0.00" timeLoss="10.59" rerouteNo="0" devices="tripinfo_55" vType="DEFAULT_VEHTYPE" speedFactor="1.00" vaporized=""/>
    <tripinfo id="60" depart="606.00" departLane="rightNN_1" departPos="5.10" departSpeed="0.00" departDelay="6.00" arrival="647.00" arrivalLane="rightCE_1" arrivalPos="186.55" arrivalSpeed="13.95" duration="41.00" routeLength="384.99" waitingTime="5.00" waitingCount="1" stopTime="0.00" timeLoss="13.43" rerouteNo="0" devices="tripinfo_60" vType="DEFAULT_VEHTYPE" speedFactor="1.08" vaporized=""/>
    <tripinfo id="54" depart="540.00" departLane="leftWW_1" departPos="5.10" departSpeed="0.00" departDelay="0.00" arrival="648.00" arrivalLane="rightWC_1" arrivalPos="32.60" arrivalSpeed="12.13" duration="108.00" routeLength="965.23" waitingTime="17.00" waitingCount="2" stopTime="0.00" timeLoss="33.07" rerouteNo="0" devices="tripinfo_54" vType="DEFAULT_VEHTYPE" speedFactor="1.00" vaporized=""/>
    <tripinfo id="61" depart="610.00" departLane="rightSC_1" departPos="5.10" departSpeed="0.00" departDelay="0.00" arrival="649.00" arrivalLane="rightCE_1" arrivalPos="186.55" arrivalSpeed="14.25" duration="39.00" routeLength="238.24" waitingTime="13.00" waitingCount="1" stopTime="0.00" timeLoss="21.97" rerouteNo="0" devices="tripinfo_61" vType="DEFAULT_VEHTYPE" speedFactor="1.12" vaporized=""/>
    <tripinfo id="59" depart="590.00" departLane="rightEC_1" departPos="5.10" departSpeed="0.00" departDelay="0.00" arrival="684.00" arrivalLane="leftCS_1" arrivalPos="186.60" arrivalSpeed="11.68" duration="94.00" routeLength="616.57" waitingTime="32.00" waitingCount="1" stopTime="0.00" timeLoss="44.62" rerouteNo="0" devices="tripinfo_59" vType="DEFAULT_VEHTYPE" speedFactor="0.97" vaporized=""/>
    <tripinfo id="58" depart="580.00" departLane="leftSC_1" departPos="5.10" departSpeed="0.00" departDelay="0.00" arrival="694.00" arrivalLane="rightCS_1" arrivalPos="186.60" arrivalSpeed="12.96" duration="114.00" routeLength="620.76" waitingTime="47.00" waitingCount="2" stopTime="0.00" timeLoss="66.93" rerouteNo="0" devices="tripinfo_58" vType="DEFAULT_VEHTYPE" speedFactor="1.02" vaporized=""/>
    <tripinfo id="68" depart="680.00" departLane="leftEC_1" departPos="5.10" departSpeed="0.00" departDelay="0.00" arrival="715.00" arrivalLane="rightEC_1" arrivalPos="32.60" arrivalSpeed="12.62" duration="35.00" routeLength="428.14" waitingTime="0.00" waitingCount="0" stopTime="0.00" timeLoss="4.00" rerouteNo="0" devices="tripinfo_68" vType="DEFAULT_VEHTYPE" speedFactor="1.04" vaporized=""/>
    <tripinfo id="63" depart="630.00" departLane="leftCW_1" departPos="5.10" departSpeed="0.00" departDelay="0.00" arrival="720.00" arrivalLane="rightSC_2" arrivalPos="32.60" arrivalSpeed="5.72" duration="90.00" routeLength="763.30" waitingTime="11.00" waitingCount="1" stopTime="0.00" timeLoss="30.32" rerouteNo="0" devices="tripinfo_63" vType="DEFAULT_VEHTYPE" speedFactor="0.99" vaporized=""/>
    <tripinfo id="64" depart="640.00" departLane="rightSS_1" departPos="5.10" departSpeed="0.00" departDelay="0.00" arrival="726.00" arrivalLane="rightEE_1" arrivalPos="145.95" arrivalSpeed="12.14" duration="86.00" routeLength="916.97" waitingTime="0.00" waitingCount="0" stopTime="0.00" timeLoss="10.60" rerouteNo="0" devices="tripinfo_64" vType="DEFAULT_VEHTYPE" speedFactor="0.94" vaporized=""/>
    <tripinfo id="65" depart="650.00" departLane="leftSC_1" departPos="5.10" departSpeed="0.00" departDelay="0.00" arrival="730.00" arrivalLane="leftCN_1" arrivalPos="186.60" arrivalSpeed="11.63" duration="80.00" routeLength="241.14" waitingTime="51.00" waitingCount="1" stopTime="0.00" timeLoss="58.97" rerouteNo="0" devices="tripinfo_65" vType="DEFAULT_VEHTYPE" speedFactor="0.88" vaporized=""/>
    <tripinfo id="67" depart="670.00" departLane="leftEC_1" departPos="5.10" departSpeed="0.00" departDelay="0.00" arrival="744.00" arrivalLane="leftWW_1" arrivalPos="145.75" arrivalSpeed="11.56" duration="74.00" routeLength="765.41" waitingTime="0.00" waitingCount="0" stopTime="0.00" timeLoss="9.15" rerouteNo="0" devices="tripinfo_67" vType="DEFAULT_VEHTYPE" speedFactor="0.91" vaporized=""/>
    <tripinfo id="74" depart="740.00" departLane="leftNC_1" departPos="5.10" departSpeed="0.00" departDelay="0.00" arrival="745.00" arrivalLane="leftNC_1" arrivalPos="32.60" arrivalSpeed="10.28" duration="5.00" routeLength="27.50" waitingTime="0.00" waitingCount="0" stopTime="0.00" timeLoss="2.66" rerouteNo="0" devices="tripinfo_74" vType="DEFAULT_VEHTYPE" speedFactor="0.96" vaporized=""/>
    <tripinfo id="66" depart="660.00" departLane="rightSS_1" departPos="5.10" departSpeed="0.00" departDelay="0.00" arrival="760.00" arrivalLane="rightWC_1" arrivalPos="32.60" arrivalSpeed="11.28" duration="100.00" routeLength="576.70" waitingTime="37.00" waitingCount="1" stopTime="0.00" timeLoss="50.67" rerouteNo="0" devices="tripinfo_66" vType="DEFAULT_VEHTYPE" speedFactor="0.91" vaporized=""/>
    <tripinfo id="72" depart="720.00" departLane="leftWC_1" departPos="5.10" departSpeed="0.00" departDelay="0.00" arrival="776.00" arrivalLane="leftCW_1" arrivalPos="186.35" arrivalSpeed="12.05" duration="56.00" routeLength="218.53" waitingTime="27.00" waitingCount="1" stopTime="0.00" timeLoss="37.70" rerouteNo="0" devices="tripinfo_72" vType="DEFAULT_VEHTYPE" speedFactor="0.94" vaporized=""/>
    <tripinfo id="69" depart="690.00" departLane="rightNN_1" departPos="5.10" departSpeed="0.00" departDelay="0.00" arrival="779.00" arrivalLane="leftCS_1" arrivalPos="186.60" arrivalSpeed="13.11" duration="89.00" routeLength="782.84" waitingTime="11.00" waitingCount="2" stopTime="0.00" timeLoss="30.27" rerouteNo="0" devices="tripinfo_69" vType="DEFAULT_VEHTYPE" speedFactor="1.02" vaporized=""/>
    <tripinfo id="75" depart="750.00" departLane="rightWW_1" departPos="5.10" departSpeed="0.00" departDelay="0.00" arrival="785.00" arrivalLane="rightCS_1" arrivalPos="186.60" arrivalSpeed="11.87" duration="35.00" routeLength="392.70" waitingTime="0.00" waitingCount="0" stopTime="0.00" timeLoss="4.53" rerouteNo="0" devices="tripinfo_75" vType="DEFAULT_VEHTYPE" speedFactor="0.98" vaporized=""/>
    <tripinfo id="77" depart="770.00" departLane="leftEE_1" departPos="5.10" departSpeed="0.00" departDelay="0.00" arrival="788.00" arrivalLane="leftEC_1" arrivalPos="32.60" arrivalSpeed="12.80" duration="18.00" routeLength="181.90" waitingTime="0.00" waitingCount="0" stopTime="0.00" timeLoss="3.12" rerouteNo="0" devices="tripinfo_77" vType="DEFAULT_VEHTYPE" speedFactor="0.98" vaporized=""/>